REMARK  Name = /data/user_data/xianyang/t3-aimnet-affinity-balanced/L3/Q9NR22/pocket.pdb
REMARK                            x       y       z     vdW  Elec       q    Type
REMARK                         _______ _______ _______ _____ _____    ______ ____
ATOM      1  N   SER A   1      -2.254  -8.746  14.256  0.00  0.00    +0.000 N 
ATOM      2  CA  SER A   1      -1.037  -8.174  14.812  0.00  0.00    +0.000 C 
ATOM      3  C   SER A   1      -1.255  -6.717  15.191  0.00  0.00    +0.000 C 
ATOM      4  O   SER A   1      -1.899  -5.962  14.466  0.00  0.00    +0.000 OA
ATOM      5  CB  SER A   1       0.114  -8.274  13.813  0.00  0.00    +0.000 C 
ATOM      6  OG  SER A   1       0.381  -9.623  13.487  0.00  0.00    +0.000 OA
ATOM      7  N   THR A   2      -0.719  -6.343  16.333  0.00  0.00    +0.000 N 
ATOM      8  CA  THR A   2      -0.715  -4.959  16.775  0.00  0.00    +0.000 C 
ATOM      9  C   THR A   2       0.688  -4.614  17.243  0.00  0.00    +0.000 C 
ATOM     10  O   THR A   2       1.345  -5.404  17.916  0.00  0.00    +0.000 OA
ATOM     11  CB  THR A   2      -1.717  -4.708  17.911  0.00  0.00    +0.000 C 
ATOM     12  OG1 THR A   2      -1.413  -5.563  19.017  0.00  0.00    +0.000 OA
ATOM     13  CG2 THR A   2      -3.137  -4.979  17.439  0.00  0.00    +0.000 C 
ATOM     14  N   GLN A   3       1.144  -3.430  16.882  0.00  0.00    +0.000 N 
ATOM     15  CA  GLN A   3       2.468  -2.977  17.277  0.00  0.00    +0.000 C 
ATOM     16  C   GLN A   3       2.418  -2.331  18.654  0.00  0.00    +0.000 C 
ATOM     17  O   GLN A   3       1.377  -1.821  19.072  0.00  0.00    +0.000 OA
ATOM     18  CB  GLN A   3       3.025  -2.001  16.241  0.00  0.00    +0.000 C 
ATOM     19  CG  GLN A   3       3.264  -2.640  14.883  0.00  0.00    +0.000 C 
ATOM     20  CD  GLN A   3       3.715  -1.640  13.847  0.00  0.00    +0.000 C 
ATOM     21  OE1 GLN A   3       3.690  -0.434  14.072  0.00  0.00    +0.000 OA
ATOM     22  NE2 GLN A   3       4.139  -2.136  12.691  0.00  0.00    +0.000 N 
ATOM     23  H   SER A   1      -2.089  -9.722  14.008  0.00  0.00    +0.000 HD
ATOM     24  H   SER A   1      -2.525  -8.225  13.422  0.00  0.00    +0.000 HD
ATOM     25  H   SER A   1      -3.002  -8.693  14.948  0.00  0.00    +0.000 HD
ATOM     26  H   SER A   1      -0.407 -10.020  13.084  0.00  0.00    +0.000 HD
ATOM     27  H   THR A   2      -0.306  -7.026  16.909  0.00  0.00    +0.000 HD
ATOM     28  H   THR A   2      -1.482  -6.489  18.738  0.00  0.00    +0.000 HD
ATOM     29  H   GLN A   3       0.576  -2.841  16.334  0.00  0.00    +0.000 HD
ATOM     30  H   GLN A   3       4.445  -1.530  11.978  0.00  0.00    +0.000 HD
ATOM     31  H   GLN A   3       4.147  -3.110  12.547  0.00  0.00    +0.000 HD
TER 
REMARK  Name = /data/user_data/xianyang/t3-aimnet-affinity-balanced/L3/Q9NR22/pocket.pdb
REMARK                            x       y       z     vdW  Elec       q    Type
REMARK                         _______ _______ _______ _____ _____    ______ ____
ATOM      1  N   SER B   1      -7.558  -4.587  14.578  0.00  0.00    +0.000 N 
ATOM      2  CA  SER B   1      -6.681  -3.570  14.017  0.00  0.00    +0.000 C 
ATOM      3  C   SER B   1      -7.450  -2.307  13.649  0.00  0.00    +0.000 C 
ATOM      4  O   SER B   1      -6.897  -1.208  13.707  0.00  0.00    +0.000 OA
ATOM      5  CB  SER B   1      -5.940  -4.125  12.799  0.00  0.00    +0.000 C 
ATOM      6  OG  SER B   1      -6.842  -4.553  11.799  0.00  0.00    +0.000 OA
ATOM      7  N   ARG B   2      -8.727  -2.453  13.294  0.00  0.00    +0.000 N 
ATOM      8  CA  ARG B   2      -9.544  -1.286  13.011  0.00  0.00    +0.000 C 
ATOM      9  C   ARG B   2      -9.663  -0.385  14.235  0.00  0.00    +0.000 C 
ATOM     10  O   ARG B   2      -9.579   0.839  14.134  0.00  0.00    +0.000 OA
ATOM     11  CB  ARG B   2     -10.940  -1.708  12.537  0.00  0.00    +0.000 C 
ATOM     12  CG  ARG B   2     -11.858  -0.546  12.213  0.00  0.00    +0.000 C 
ATOM     13  CD  ARG B   2     -13.319  -0.965  12.186  0.00  0.00    +0.000 C 
ATOM     14  NE  ARG B   2     -13.631  -1.893  11.105  0.00  0.00    +0.000 N 
ATOM     15  CZ  ARG B   2     -14.133  -3.115  11.280  0.00  0.00    +0.000 C 
ATOM     16  NH2 ARG B   2     -14.392  -3.568  12.494  0.00  0.00    +0.000 N 
ATOM     17  NH1 ARG B   2     -14.391  -3.874  10.228  0.00  0.00    +0.000 N 
ATOM     18  H   SER B   1      -7.011  -5.416  14.812  0.00  0.00    +0.000 HD
ATOM     19  H   SER B   1      -8.274  -4.834  13.894  0.00  0.00    +0.000 HD
ATOM     20  H   SER B   1      -8.004  -4.224  15.421  0.00  0.00    +0.000 HD
ATOM     21  H   SER B   1      -7.377  -3.800  11.503  0.00  0.00    +0.000 HD
ATOM     22  H   ARG B   2      -9.117  -3.354  13.224  0.00  0.00    +0.000 HD
ATOM     23  H   ARG B   2     -13.459  -1.596  10.182  0.00  0.00    +0.000 HD
ATOM     24  H   ARG B   2     -14.763  -4.472  12.613  0.00  0.00    +0.000 HD
ATOM     25  H   ARG B   2     -14.214  -3.001  13.279  0.00  0.00    +0.000 HD
ATOM     26  H   ARG B   2     -14.200  -3.541   9.322  0.00  0.00    +0.000 HD
ATOM     27  H   ARG B   2     -14.774  -4.772  10.351  0.00  0.00    +0.000 HD
TER 
REMARK  Name = /data/user_data/xianyang/t3-aimnet-affinity-balanced/L3/Q9NR22/pocket.pdb
REMARK                            x       y       z     vdW  Elec       q    Type
REMARK                         _______ _______ _______ _____ _____    ______ ____
ATOM      1  N   TYR C   1      -7.585  -0.031  16.664  0.00  0.00    +0.000 N 
ATOM      2  CA  TYR C   1      -6.308   0.588  17.008  0.00  0.00    +0.000 C 
ATOM      3  C   TYR C   1      -5.920   1.729  16.077  0.00  0.00    +0.000 C 
ATOM      4  O   TYR C   1      -5.020   2.501  16.398  0.00  0.00    +0.000 OA
ATOM      5  CB  TYR C   1      -5.189  -0.458  16.990  0.00  0.00    +0.000 C 
ATOM      6  CG  TYR C   1      -5.098  -1.290  18.247  0.00  0.00    +0.000 A 
ATOM      7  CD2 TYR C   1      -4.458  -0.788  19.380  0.00  0.00    +0.000 A 
ATOM      8  CD1 TYR C   1      -5.628  -2.570  18.296  0.00  0.00    +0.000 A 
ATOM      9  CE2 TYR C   1      -4.357  -1.551  20.537  0.00  0.00    +0.000 A 
ATOM     10  CE1 TYR C   1      -5.531  -3.337  19.451  0.00  0.00    +0.000 A 
ATOM     11  CZ  TYR C   1      -4.896  -2.825  20.569  0.00  0.00    +0.000 A 
ATOM     12  OH  TYR C   1      -4.796  -3.583  21.707  0.00  0.00    +0.000 OA
ATOM     13  N   TYR C   2      -6.584   1.843  14.942  0.00  0.00    +0.000 N 
ATOM     14  CA  TYR C   2      -6.049   2.682  13.871  0.00  0.00    +0.000 C 
ATOM     15  C   TYR C   2      -5.880   4.136  14.287  0.00  0.00    +0.000 C 
ATOM     16  O   TYR C   2      -4.771   4.684  14.248  0.00  0.00    +0.000 OA
ATOM     17  CB  TYR C   2      -6.952   2.574  12.637  0.00  0.00    +0.000 C 
ATOM     18  CG  TYR C   2      -6.435   3.344  11.453  0.00  0.00    +0.000 A 
ATOM     19  CD1 TYR C   2      -5.358   2.867  10.710  0.00  0.00    +0.000 A 
ATOM     20  CD2 TYR C   2      -7.026   4.541  11.065  0.00  0.00    +0.000 A 
ATOM     21  CE1 TYR C   2      -4.881   3.566   9.614  0.00  0.00    +0.000 A 
ATOM     22  CE2 TYR C   2      -6.554   5.245   9.970  0.00  0.00    +0.000 A 
ATOM     23  CZ  TYR C   2      -5.481   4.754   9.247  0.00  0.00    +0.000 A 
ATOM     24  OH  TYR C   2      -5.011   5.448   8.162  0.00  0.00    +0.000 OA
ATOM     25  H   TYR C   1      -8.320   0.676  16.680  0.00  0.00    +0.000 HD
ATOM     26  H   TYR C   1      -7.802  -0.762  17.341  0.00  0.00    +0.000 HD
ATOM     27  H   TYR C   1      -7.525  -0.439  15.731  0.00  0.00    +0.000 HD
ATOM     28  H   TYR C   1      -5.161  -4.446  21.729  0.00  0.00    +0.000 HD
ATOM     29  H   TYR C   2      -7.436   1.365  14.817  0.00  0.00    +0.000 HD
ATOM     30  H   TYR C   2      -4.285   5.116   7.672  0.00  0.00    +0.000 HD
TER 
REMARK  Name = /data/user_data/xianyang/t3-aimnet-affinity-balanced/L3/Q9NR22/pocket.pdb
REMARK                            x       y       z     vdW  Elec       q    Type
REMARK                         _______ _______ _______ _____ _____    ______ ____
ATOM      1  N   SER D   1      -3.533   4.701  17.146  0.00  0.00    +0.000 N 
ATOM      2  CA  SER D   1      -2.138   4.607  16.734  0.00  0.00    +0.000 C 
ATOM      3  C   SER D   1      -1.643   5.922  16.153  0.00  0.00    +0.000 C 
ATOM      4  O   SER D   1      -0.526   6.359  16.442  0.00  0.00    +0.000 OA
ATOM      5  CB  SER D   1      -1.959   3.477  15.720  0.00  0.00    +0.000 C 
ATOM      6  OG  SER D   1      -2.250   2.216  16.310  0.00  0.00    +0.000 OA
ATOM      7  N   TYR D   2      -2.464   6.550  15.340  0.00  0.00    +0.000 N 
ATOM      8  CA  TYR D   2      -2.073   7.816  14.728  0.00  0.00    +0.000 C 
ATOM      9  C   TYR D   2      -2.090   8.987  15.702  0.00  0.00    +0.000 C 
ATOM     10  O   TYR D   2      -1.608  10.065  15.361  0.00  0.00    +0.000 OA
ATOM     11  CB  TYR D   2      -2.951   8.118  13.512  0.00  0.00    +0.000 C 
ATOM     12  CG  TYR D   2      -2.387   7.528  12.245  0.00  0.00    +0.000 A 
ATOM     13  CD1 TYR D   2      -1.377   8.187  11.550  0.00  0.00    +0.000 A 
ATOM     14  CD2 TYR D   2      -2.839   6.313  11.757  0.00  0.00    +0.000 A 
ATOM     15  CE1 TYR D   2      -0.846   7.650  10.390  0.00  0.00    +0.000 A 
ATOM     16  CE2 TYR D   2      -2.310   5.769  10.597  0.00  0.00    +0.000 A 
ATOM     17  CZ  TYR D   2      -1.313   6.442   9.916  0.00  0.00    +0.000 A 
ATOM     18  OH  TYR D   2      -0.788   5.908   8.772  0.00  0.00    +0.000 OA
ATOM     19  H   SER D   1      -3.835   3.806  17.530  0.00  0.00    +0.000 HD
ATOM     20  H   SER D   1      -4.111   4.937  16.339  0.00  0.00    +0.000 HD
ATOM     21  H   SER D   1      -3.629   5.426  17.857  0.00  0.00    +0.000 HD
ATOM     22  H   SER D   1      -3.171   2.207  16.615  0.00  0.00    +0.000 HD
ATOM     23  H   TYR D   2      -3.348   6.164  15.143  0.00  0.00    +0.000 HD
ATOM     24  H   TYR D   2      -0.112   6.363   8.310  0.00  0.00    +0.000 HD
TER 
REMARK  Name = /data/user_data/xianyang/t3-aimnet-affinity-balanced/L3/Q9NR22/pocket.pdb
REMARK                            x       y       z     vdW  Elec       q    Type
REMARK                         _______ _______ _______ _____ _____    ______ ____
ATOM      1  N   ILE E   1       4.626   7.964  15.571  0.00  0.00    +0.000 N 
ATOM      2  CA  ILE E   1       4.313   7.617  14.193  0.00  0.00    +0.000 C 
ATOM      3  C   ILE E   1       4.560   8.811  13.285  0.00  0.00    +0.000 C 
ATOM      4  O   ILE E   1       5.118   8.678  12.192  0.00  0.00    +0.000 OA
ATOM      5  CB  ILE E   1       2.864   7.111  14.086  0.00  0.00    +0.000 C 
ATOM      6  CG1 ILE E   1       2.762   5.730  14.739  0.00  0.00    +0.000 C 
ATOM      7  CG2 ILE E   1       2.402   7.068  12.639  0.00  0.00    +0.000 C 
ATOM      8  CD1 ILE E   1       1.348   5.200  14.844  0.00  0.00    +0.000 C 
ATOM      9  H   ILE E   1       5.588   8.297  15.627  0.00  0.00    +0.000 HD
ATOM     10  H   ILE E   1       4.516   7.140  16.162  0.00  0.00    +0.000 HD
ATOM     11  H   ILE E   1       3.993   8.698  15.889  0.00  0.00    +0.000 HD
TER 
REMARK  Name = /data/user_data/xianyang/t3-aimnet-affinity-balanced/L3/Q9NR22/pocket.pdb
REMARK                            x       y       z     vdW  Elec       q    Type
REMARK                         _______ _______ _______ _____ _____    ______ ____
ATOM      1  N   GLU F   1       8.262   9.364  12.734  0.00  0.00    +0.000 N 
ATOM      2  CA  GLU F   1       8.812   8.478  11.717  0.00  0.00    +0.000 C 
ATOM      3  C   GLU F   1       8.518   9.001  10.315  0.00  0.00    +0.000 C 
ATOM      4  O   GLU F   1       9.383   8.975   9.434  0.00  0.00    +0.000 OA
ATOM      5  CB  GLU F   1       8.250   7.067  11.893  0.00  0.00    +0.000 C 
ATOM      6  CG  GLU F   1       8.796   6.064  10.890  0.00  0.00    +0.000 C 
ATOM      7  CD  GLU F   1       8.211   4.674  11.065  0.00  0.00    +0.000 C 
ATOM      8  OE2 GLU F   1       7.264   4.510  11.864  0.00  0.00    +0.000 OA
ATOM      9  OE1 GLU F   1       8.700   3.748  10.396  0.00  0.00    +0.000 OA
ATOM     10  N   MET F   2       7.307   9.465  10.090  0.00  0.00    +0.000 N 
ATOM     11  CA  MET F   2       6.954   9.994   8.777  0.00  0.00    +0.000 C 
ATOM     12  C   MET F   2       7.696  11.287   8.470  0.00  0.00    +0.000 C 
ATOM     13  O   MET F   2       8.181  11.482   7.349  0.00  0.00    +0.000 OA
ATOM     14  CB  MET F   2       5.442  10.204   8.686  0.00  0.00    +0.000 C 
ATOM     15  CG  MET F   2       4.643   8.912   8.667  0.00  0.00    +0.000 C 
ATOM     16  SD  MET F   2       2.891   9.161   8.366  0.00  0.00    +0.000 S 
ATOM     17  CE  MET F   2       2.384   9.882   9.927  0.00  0.00    +0.000 C 
ATOM     18  H   GLU F   1       8.642  10.302  12.609  0.00  0.00    +0.000 HD
ATOM     19  H   GLU F   1       8.513   9.016  13.660  0.00  0.00    +0.000 HD
ATOM     20  H   GLU F   1       7.246   9.394  12.646  0.00  0.00    +0.000 HD
ATOM     21  H   MET F   2       6.637   9.455  10.811  0.00  0.00    +0.000 HD
TER 
REMARK  Name = /data/user_data/xianyang/t3-aimnet-affinity-balanced/L3/Q9NR22/pocket.pdb
REMARK                            x       y       z     vdW  Elec       q    Type
REMARK                         _______ _______ _______ _____ _____    ______ ____
ATOM      1  N   GLU G   1      -1.134  12.575   2.180  0.00  0.00    +0.000 N 
ATOM      2  CA  GLU G   1      -0.166  11.506   2.316  0.00  0.00    +0.000 C 
ATOM      3  C   GLU G   1      -0.957  10.265   2.711  0.00  0.00    +0.000 C 
ATOM      4  O   GLU G   1      -1.140   9.980   3.895  0.00  0.00    +0.000 OA
ATOM      5  CB  GLU G   1       0.889  11.887   3.353  0.00  0.00    +0.000 C 
ATOM      6  CG  GLU G   1       2.198  11.116   3.221  0.00  0.00    +0.000 C 
ATOM      7  CD  GLU G   1       2.074   9.675   3.647  0.00  0.00    +0.000 C 
ATOM      8  OE2 GLU G   1       2.221   9.410   4.858  0.00  0.00    +0.000 OA
ATOM      9  OE1 GLU G   1       1.844   8.814   2.779  0.00  0.00    +0.000 OA
ATOM     10  N   TRP G   2      -1.442   9.546   1.715  0.00  0.00    +0.000 N 
ATOM     11  CA  TRP G   2      -2.417   8.484   1.936  0.00  0.00    +0.000 C 
ATOM     12  C   TRP G   2      -1.821   7.085   1.835  0.00  0.00    +0.000 C 
ATOM     13  O   TRP G   2      -2.490   6.107   2.194  0.00  0.00    +0.000 OA
ATOM     14  CB  TRP G   2      -3.575   8.615   0.940  0.00  0.00    +0.000 C 
ATOM     15  CG  TRP G   2      -3.135   8.597  -0.495  0.00  0.00    +0.000 C 
ATOM     16  CD1 TRP G   2      -2.903   9.677  -1.293  0.00  0.00    +0.000 C 
ATOM     17  CD2 TRP G   2      -2.865   7.444  -1.307  0.00  0.00    +0.000 A 
ATOM     18  NE1 TRP G   2      -2.509   9.273  -2.539  0.00  0.00    +0.000 NA
ATOM     19  CE2 TRP G   2      -2.476   7.904  -2.580  0.00  0.00    +0.000 A 
ATOM     20  CE3 TRP G   2      -2.928   6.064  -1.079  0.00  0.00    +0.000 A 
ATOM     21  CZ2 TRP G   2      -2.146   7.036  -3.612  0.00  0.00    +0.000 A 
ATOM     22  CZ3 TRP G   2      -2.596   5.206  -2.113  0.00  0.00    +0.000 A 
ATOM     23  CH2 TRP G   2      -2.206   5.686  -3.358  0.00  0.00    +0.000 A 
ATOM     24  N   MET G   3      -0.603   6.969   1.346  0.00  0.00    +0.000 N 
ATOM     25  CA  MET G   3      -0.048   5.662   1.024  0.00  0.00    +0.000 C 
ATOM     26  C   MET G   3       0.274   4.863   2.280  0.00  0.00    +0.000 C 
ATOM     27  O   MET G   3       0.873   5.381   3.223  0.00  0.00    +0.000 OA
ATOM     28  CB  MET G   3       1.214   5.802   0.170  0.00  0.00    +0.000 C 
ATOM     29  CG  MET G   3       0.983   6.527  -1.143  0.00  0.00    +0.000 C 
ATOM     30  SD  MET G   3       0.930   8.330  -0.982  0.00  0.00    +0.000 S 
ATOM     31  CE  MET G   3       2.636   8.699  -0.611  0.00  0.00    +0.000 C 
ATOM     32  N   GLY G   4      -0.116   3.588   2.273  0.00  0.00    +0.000 N 
ATOM     33  CA  GLY G   4       0.241   2.660   3.322  0.00  0.00    +0.000 C 
ATOM     34  C   GLY G   4       1.276   1.668   2.840  0.00  0.00    +0.000 C 
ATOM     35  O   GLY G   4       1.791   1.765   1.722  0.00  0.00    +0.000 OA
ATOM     36  N   TYR G   5       1.608   0.716   3.691  0.00  0.00    +0.000 N 
ATOM     37  CA  TYR G   5       2.491  -0.358   3.279  0.00  0.00    +0.000 C 
ATOM     38  C   TYR G   5       1.875  -1.080   2.086  0.00  0.00    +0.000 C 
ATOM     39  O   TYR G   5       0.657  -1.234   1.993  0.00  0.00    +0.000 OA
ATOM     40  CB  TYR G   5       2.739  -1.341   4.420  0.00  0.00    +0.000 C 
ATOM     41  CG  TYR G   5       3.409  -0.725   5.626  0.00  0.00    +0.000 A 
ATOM     42  CD1 TYR G   5       4.420   0.221   5.489  0.00  0.00    +0.000 A 
ATOM     43  CD2 TYR G   5       3.030  -1.101   6.912  0.00  0.00    +0.000 A 
ATOM     44  CE1 TYR G   5       5.034   0.782   6.606  0.00  0.00    +0.000 A 
ATOM     45  CE2 TYR G   5       3.644  -0.551   8.028  0.00  0.00    +0.000 A 
ATOM     46  CZ  TYR G   5       4.641   0.390   7.873  0.00  0.00    +0.000 A 
ATOM     47  OH  TYR G   5       5.246   0.935   8.973  0.00  0.00    +0.000 OA
ATOM     48  H   GLU G   1      -1.834  12.313   1.486  0.00  0.00    +0.000 HD
ATOM     49  H   GLU G   1      -0.660  13.427   1.880  0.00  0.00    +0.000 HD
ATOM     50  H   GLU G   1      -1.589  12.738   3.078  0.00  0.00    +0.000 HD
ATOM     51  H   TRP G   2      -1.137   9.732   0.798  0.00  0.00    +0.000 HD
ATOM     52  H   MET G   3      -0.061   7.777   1.196  0.00  0.00    +0.000 HD
ATOM     53  H   GLY G   4      -0.668   3.266   1.524  0.00  0.00    +0.000 HD
ATOM     54  H   TYR G   5       1.255   0.735   4.610  0.00  0.00    +0.000 HD
ATOM     55  H   TYR G   5       5.923   1.574   8.867  0.00  0.00    +0.000 HD
TER 
REMARK  Name = /data/user_data/xianyang/t3-aimnet-affinity-balanced/L3/Q9NR22/pocket.pdb
REMARK                            x       y       z     vdW  Elec       q    Type
REMARK                         _______ _______ _______ _____ _____    ______ ____
ATOM      1  N   TYR H   1      -2.262  -0.626   2.011  0.00  0.00    +0.000 N 
ATOM      2  CA  TYR H   1      -2.565  -0.954   3.400  0.00  0.00    +0.000 C 
ATOM      3  C   TYR H   1      -3.066   0.288   4.117  0.00  0.00    +0.000 C 
ATOM      4  O   TYR H   1      -2.564   1.386   3.893  0.00  0.00    +0.000 OA
ATOM      5  CB  TYR H   1      -1.327  -1.511   4.094  0.00  0.00    +0.000 C 
ATOM      6  CG  TYR H   1      -1.562  -2.006   5.502  0.00  0.00    +0.000 A 
ATOM      7  CD1 TYR H   1      -2.583  -2.908   5.788  0.00  0.00    +0.000 A 
ATOM      8  CD2 TYR H   1      -0.747  -1.584   6.544  0.00  0.00    +0.000 A 
ATOM      9  CE1 TYR H   1      -2.788  -3.367   7.083  0.00  0.00    +0.000 A 
ATOM     10  CE2 TYR H   1      -0.943  -2.044   7.834  0.00  0.00    +0.000 A 
ATOM     11  CZ  TYR H   1      -1.961  -2.934   8.100  0.00  0.00    +0.000 A 
ATOM     12  OH  TYR H   1      -2.155  -3.389   9.382  0.00  0.00    +0.000 OA
ATOM     13  N   GLU H   2      -4.053   0.102   4.973  0.00  0.00    +0.000 N 
ATOM     14  CA  GLU H   2      -4.822   1.127   5.671  0.00  0.00    +0.000 C 
ATOM     15  C   GLU H   2      -5.988   1.661   4.850  0.00  0.00    +0.000 C 
ATOM     16  O   GLU H   2      -6.873   2.310   5.409  0.00  0.00    +0.000 OA
ATOM     17  CB  GLU H   2      -3.958   2.306   6.142  0.00  0.00    +0.000 C 
ATOM     18  CG  GLU H   2      -2.780   1.926   7.022  0.00  0.00    +0.000 C 
ATOM     19  CD  GLU H   2      -1.872   3.113   7.303  0.00  0.00    +0.000 C 
ATOM     20  OE2 GLU H   2      -2.400   4.205   7.596  0.00  0.00    +0.000 OA
ATOM     21  OE1 GLU H   2      -0.643   2.939   7.231  0.00  0.00    +0.000 OA
ATOM     22  H   TYR H   1      -1.926  -1.460   1.530  0.00  0.00    +0.000 HD
ATOM     23  H   TYR H   1      -1.543   0.097   1.981  0.00  0.00    +0.000 HD
ATOM     24  H   TYR H   1      -3.106  -0.285   1.550  0.00  0.00    +0.000 HD
ATOM     25  H   TYR H   1      -2.847  -3.994   9.565  0.00  0.00    +0.000 HD
ATOM     26  H   GLU H   2      -4.298  -0.833   5.162  0.00  0.00    +0.000 HD
TER 
REMARK  Name = /data/user_data/xianyang/t3-aimnet-affinity-balanced/L3/Q9NR22/pocket.pdb
REMARK                            x       y       z     vdW  Elec       q    Type
REMARK                         _______ _______ _______ _____ _____    ______ ____
ATOM      1  N   MET I   1      -6.545   4.107   2.985  0.00  0.00    +0.000 N 
ATOM      2  CA  MET I   1      -6.852   5.525   3.112  0.00  0.00    +0.000 C 
ATOM      3  C   MET I   1      -7.215   6.166   1.776  0.00  0.00    +0.000 C 
ATOM      4  O   MET I   1      -7.852   7.221   1.745  0.00  0.00    +0.000 OA
ATOM      5  CB  MET I   1      -5.683   6.272   3.755  0.00  0.00    +0.000 C 
ATOM      6  CG  MET I   1      -6.012   7.715   4.098  0.00  0.00    +0.000 C 
ATOM      7  SD  MET I   1      -4.639   8.578   4.867  0.00  0.00    +0.000 S 
ATOM      8  CE  MET I   1      -5.254  10.256   4.844  0.00  0.00    +0.000 C 
ATOM      9  H   MET I   1      -7.335   3.625   2.555  0.00  0.00    +0.000 HD
ATOM     10  H   MET I   1      -6.369   3.713   3.909  0.00  0.00    +0.000 HD
ATOM     11  H   MET I   1      -5.716   3.989   2.402  0.00  0.00    +0.000 HD
TER 
REMARK  Name = /data/user_data/xianyang/t3-aimnet-affinity-balanced/L3/Q9NR22/pocket.pdb
REMARK                            x       y       z     vdW  Elec       q    Type
REMARK                         _______ _______ _______ _____ _____    ______ ____
ATOM      1  N   HIS J   1      10.138   5.082   4.886  0.00  0.00    +0.000 N 
ATOM      2  CA  HIS J   1       9.581   4.303   5.991  0.00  0.00    +0.000 C 
ATOM      3  C   HIS J   1       8.621   3.218   5.519  0.00  0.00    +0.000 C 
ATOM      4  O   HIS J   1       8.275   2.333   6.301  0.00  0.00    +0.000 OA
ATOM      5  CB  HIS J   1       8.888   5.225   7.005  0.00  0.00    +0.000 C 
ATOM      6  CG  HIS J   1       7.562   5.740   6.544  0.00  0.00    +0.000 C 
ATOM      7  ND1 HIS J   1       7.419   6.860   5.762  0.00  0.00    +0.000 NA
ATOM      8  CD2 HIS J   1       6.310   5.283   6.782  0.00  0.00    +0.000 C 
ATOM      9  CE1 HIS J   1       6.135   7.065   5.538  0.00  0.00    +0.000 C 
ATOM     10  NE2 HIS J   1       5.436   6.131   6.148  0.00  0.00    +0.000 NA
ATOM     11  N   TRP J   2       8.186   3.272   4.265  0.00  0.00    +0.000 N 
ATOM     12  CA  TRP J   2       7.364   2.192   3.720  0.00  0.00    +0.000 C 
ATOM     13  C   TRP J   2       8.167   0.934   3.437  0.00  0.00    +0.000 C 
ATOM     14  O   TRP J   2       7.581  -0.155   3.350  0.00  0.00    +0.000 OA
ATOM     15  CB  TRP J   2       6.683   2.633   2.421  0.00  0.00    +0.000 C 
ATOM     16  CG  TRP J   2       5.607   3.651   2.591  0.00  0.00    +0.000 C 
ATOM     17  CD1 TRP J   2       4.329   3.438   3.020  0.00  0.00    +0.000 C 
ATOM     18  CD2 TRP J   2       5.711   5.052   2.324  0.00  0.00    +0.000 A 
ATOM     19  NE1 TRP J   2       3.630   4.621   3.039  0.00  0.00    +0.000 NA
ATOM     20  CE2 TRP J   2       4.453   5.624   2.616  0.00  0.00    +0.000 A 
ATOM     21  CE3 TRP J   2       6.744   5.872   1.858  0.00  0.00    +0.000 A 
ATOM     22  CZ2 TRP J   2       4.200   6.986   2.459  0.00  0.00    +0.000 A 
ATOM     23  CZ3 TRP J   2       6.491   7.225   1.705  0.00  0.00    +0.000 A 
ATOM     24  CH2 TRP J   2       5.231   7.765   2.005  0.00  0.00    +0.000 A 
ATOM     25  H   HIS J   1      10.594   4.455   4.223  0.00  0.00    +0.000 HD
ATOM     26  H   HIS J   1      10.821   5.747   5.249  0.00  0.00    +0.000 HD
ATOM     27  H   HIS J   1       9.388   5.588   4.415  0.00  0.00    +0.000 HD
ATOM     28  H   TRP J   2       8.418   4.043   3.699  0.00  0.00    +0.000 HD
TER 
REMARK  Name = /data/user_data/xianyang/t3-aimnet-affinity-balanced/L3/Q9NR22/pocket.pdb
REMARK                            x       y       z     vdW  Elec       q    Type
REMARK                         _______ _______ _______ _____ _____    ______ ____
ATOM      1  N   ASN K   1     -12.388  -5.712   8.148  0.00  0.00    +0.000 N 
ATOM      2  CA  ASN K   1     -11.653  -4.486   8.427  0.00  0.00    +0.000 C 
ATOM      3  C   ASN K   1     -11.048  -3.995   7.124  0.00  0.00    +0.000 C 
ATOM      4  O   ASN K   1     -10.040  -4.523   6.663  0.00  0.00    +0.000 OA
ATOM      5  CB  ASN K   1     -10.570  -4.721   9.476  0.00  0.00    +0.000 C 
ATOM      6  CG  ASN K   1      -9.810  -3.456   9.829  0.00  0.00    +0.000 C 
ATOM      7  OD1 ASN K   1     -10.138  -2.358   9.354  0.00  0.00    +0.000 OA
ATOM      8  ND2 ASN K   1      -8.791  -3.587  10.662  0.00  0.00    +0.000 N 
ATOM      9  H   ASN K   1     -13.104  -5.527   7.445  0.00  0.00    +0.000 HD
ATOM     10  H   ASN K   1     -12.830  -6.046   9.004  0.00  0.00    +0.000 HD
ATOM     11  H   ASN K   1     -11.745  -6.422   7.799  0.00  0.00    +0.000 HD
ATOM     12  H   ASN K   1      -8.264  -2.797  10.924  0.00  0.00    +0.000 HD
ATOM     13  H   ASN K   1      -8.559  -4.474  11.020  0.00  0.00    +0.000 HD
TER 
REMARK  Name = /data/user_data/xianyang/t3-aimnet-affinity-balanced/L3/Q9NR22/pocket.pdb
REMARK                            x       y       z     vdW  Elec       q    Type
REMARK                         _______ _______ _______ _____ _____    ______ ____
ATOM      1  N   ARG L   1      -9.274  -1.651   6.390  0.00  0.00    +0.000 N 
ATOM      2  CA  ARG L   1      -7.899  -1.181   6.453  0.00  0.00    +0.000 C 
ATOM      3  C   ARG L   1      -6.888  -2.312   6.319  0.00  0.00    +0.000 C 
ATOM      4  O   ARG L   1      -5.715  -2.054   6.055  0.00  0.00    +0.000 OA
ATOM      5  CB  ARG L   1      -7.659  -0.402   7.740  0.00  0.00    +0.000 C 
ATOM      6  CG  ARG L   1      -8.539   0.825   7.856  0.00  0.00    +0.000 C 
ATOM      7  CD  ARG L   1      -8.095   1.738   8.970  0.00  0.00    +0.000 C 
ATOM      8  NE  ARG L   1      -9.000   2.868   9.122  0.00  0.00    +0.000 N 
ATOM      9  CZ  ARG L   1      -8.964   3.960   8.366  0.00  0.00    +0.000 C 
ATOM     10  NH1 ARG L   1      -8.066   4.084   7.398  0.00  0.00    +0.000 N 
ATOM     11  NH2 ARG L   1      -9.830   4.934   8.583  0.00  0.00    +0.000 N 
ATOM     12  N   ASP L   2      -7.320  -3.543   6.512  0.00  0.00    +0.000 N 
ATOM     13  CA  ASP L   2      -6.484  -4.704   6.257  0.00  0.00    +0.000 C 
ATOM     14  C   ASP L   2      -6.595  -5.107   4.793  0.00  0.00    +0.000 C 
ATOM     15  O   ASP L   2      -7.530  -4.725   4.090  0.00  0.00    +0.000 OA
ATOM     16  CB  ASP L   2      -6.896  -5.879   7.143  0.00  0.00    +0.000 C 
ATOM     17  CG  ASP L   2      -6.695  -5.596   8.621  0.00  0.00    +0.000 C 
ATOM     18  OD1 ASP L   2      -5.947  -4.662   8.962  0.00  0.00    +0.000 OA
ATOM     19  OD2 ASP L   2      -7.297  -6.324   9.441  0.00  0.00    +0.000 OA
ATOM     20  H   ARG L   1      -9.417  -2.170   5.523  0.00  0.00    +0.000 HD
ATOM     21  H   ARG L   1      -9.908  -0.852   6.417  0.00  0.00    +0.000 HD
ATOM     22  H   ARG L   1      -9.462  -2.261   7.186  0.00  0.00    +0.000 HD
ATOM     23  H   ARG L   1      -9.682   2.820   9.830  0.00  0.00    +0.000 HD
ATOM     24  H   ARG L   1      -8.049   4.898   6.844  0.00  0.00    +0.000 HD
ATOM     25  H   ARG L   1      -7.417   3.362   7.233  0.00  0.00    +0.000 HD
ATOM     26  H   ARG L   1      -9.808   5.745   8.026  0.00  0.00    +0.000 HD
ATOM     27  H   ARG L   1     -10.497   4.848   9.302  0.00  0.00    +0.000 HD
ATOM     28  H   ASP L   2      -8.238  -3.680   6.839  0.00  0.00    +0.000 HD
TER 
REMARK  Name = /data/user_data/xianyang/t3-aimnet-affinity-balanced/L3/Q9NR22/pocket.pdb
REMARK                            x       y       z     vdW  Elec       q    Type
REMARK                         _______ _______ _______ _____ _____    ______ ____
ATOM      1  N   ARG M   1      -2.419  -7.544   8.136  0.00  0.00    +0.000 N 
ATOM      2  CA  ARG M   1      -3.229  -7.054   9.234  0.00  0.00    +0.000 C 
ATOM      3  C   ARG M   1      -2.583  -5.850   9.895  0.00  0.00    +0.000 C 
ATOM      4  O   ARG M   1      -3.199  -5.208  10.728  0.00  0.00    +0.000 OA
ATOM      5  CB  ARG M   1      -3.435  -8.146  10.273  0.00  0.00    +0.000 C 
ATOM      6  CG  ARG M   1      -3.936  -9.445   9.689  0.00  0.00    +0.000 C 
ATOM      7  CD  ARG M   1      -5.463  -9.479   9.682  0.00  0.00    +0.000 C 
ATOM      8  NE  ARG M   1      -5.979  -9.434   8.339  0.00  0.00    +0.000 N 
ATOM      9  CZ  ARG M   1      -6.988 -10.178   7.901  0.00  0.00    +0.000 C 
ATOM     10  NH2 ARG M   1      -7.582 -11.043   8.699  0.00  0.00    +0.000 N 
ATOM     11  NH1 ARG M   1      -7.397 -10.047   6.640  0.00  0.00    +0.000 N 
ATOM     12  H   ARG M   1      -2.291  -6.800   7.450  0.00  0.00    +0.000 HD
ATOM     13  H   ARG M   1      -2.887  -8.336   7.696  0.00  0.00    +0.000 HD
ATOM     14  H   ARG M   1      -1.509  -7.840   8.490  0.00  0.00    +0.000 HD
ATOM     15  H   ARG M   1      -5.557  -8.811   7.704  0.00  0.00    +0.000 HD
ATOM     16  H   ARG M   1      -8.329 -11.589   8.364  0.00  0.00    +0.000 HD
ATOM     17  H   ARG M   1      -7.278 -11.143   9.630  0.00  0.00    +0.000 HD
ATOM     18  H   ARG M   1      -6.954  -9.401   6.043  0.00  0.00    +0.000 HD
ATOM     19  H   ARG M   1      -8.142 -10.596   6.305  0.00  0.00    +0.000 HD
TER 
