REMARK  Name = /data/user_data/xianyang/t3-aimnet-affinity-balanced/L3/P56528/pocket.pdb
REMARK                            x       y       z     vdW  Elec       q    Type
REMARK                         _______ _______ _______ _____ _____    ______ ____
ATOM      1  N   TRP A   1       1.802  15.230  -8.875  0.00  0.00    +0.000 N 
ATOM      2  CA  TRP A   1       2.950  15.842  -8.224  0.00  0.00    +0.000 C 
ATOM      3  C   TRP A   1       4.085  14.847  -8.146  0.00  0.00    +0.000 C 
ATOM      4  O   TRP A   1       3.873  13.629  -8.191  0.00  0.00    +0.000 OA
ATOM      5  CB  TRP A   1       2.593  16.367  -6.818  0.00  0.00    +0.000 C 
ATOM      6  CG  TRP A   1       2.145  15.302  -5.867  0.00  0.00    +0.000 C 
ATOM      7  CD1 TRP A   1       0.856  14.910  -5.639  0.00  0.00    +0.000 C 
ATOM      8  CD2 TRP A   1       2.961  14.482  -5.021  0.00  0.00    +0.000 C 
ATOM      9  NE1 TRP A   1       0.819  13.907  -4.703  0.00  0.00    +0.000 NA
ATOM     10  CE2 TRP A   1       2.101  13.617  -4.306  0.00  0.00    +0.000 C 
ATOM     11  CE3 TRP A   1       4.345  14.398  -4.792  0.00  0.00    +0.000 C 
ATOM     12  CZ2 TRP A   1       2.574  12.682  -3.389  0.00  0.00    +0.000 C 
ATOM     13  CZ3 TRP A   1       4.810  13.465  -3.881  0.00  0.00    +0.000 C 
ATOM     14  CH2 TRP A   1       3.930  12.618  -3.190  0.00  0.00    +0.000 C 
ATOM     15  H   TRP A   1       2.074  14.895  -9.799  0.00  0.00    +0.000 HD
ATOM     16  H   TRP A   1       1.057  15.920  -8.969  0.00  0.00    +0.000 HD
ATOM     17  H   TRP A   1       1.471  14.446  -8.313  0.00  0.00    +0.000 HD
TER 
REMARK  Name = /data/user_data/xianyang/t3-aimnet-affinity-balanced/L3/P56528/pocket.pdb
REMARK                            x       y       z     vdW  Elec       q    Type
REMARK                         _______ _______ _______ _____ _____    ______ ____
ATOM      1  N   LYS B   1       4.964  17.259  -2.689  0.00  0.00    +0.000 N 
ATOM      2  CA  LYS B   1       3.696  16.869  -2.081  0.00  0.00    +0.000 C 
ATOM      3  C   LYS B   1       3.106  17.978  -1.219  0.00  0.00    +0.000 C 
ATOM      4  O   LYS B   1       1.916  18.284  -1.319  0.00  0.00    +0.000 OA
ATOM      5  CB  LYS B   1       3.884  15.602  -1.243  0.00  0.00    +0.000 C 
ATOM      6  CG  LYS B   1       2.640  15.165  -0.493  0.00  0.00    +0.000 C 
ATOM      7  CD  LYS B   1       2.893  13.923   0.337  0.00  0.00    +0.000 C 
ATOM      8  CE  LYS B   1       1.658  13.508   1.118  0.00  0.00    +0.000 C 
ATOM      9  NZ  LYS B   1       1.897  12.287   1.939  0.00  0.00    +0.000 N 
ATOM     10  H   LYS B   1       5.321  16.489  -3.255  0.00  0.00    +0.000 HD
ATOM     11  H   LYS B   1       5.638  17.483  -1.957  0.00  0.00    +0.000 HD
ATOM     12  H   LYS B   1       4.820  18.077  -3.281  0.00  0.00    +0.000 HD
ATOM     13  H   LYS B   1       2.141  11.508   1.327  0.00  0.00    +0.000 HD
ATOM     14  H   LYS B   1       1.051  12.057   2.461  0.00  0.00    +0.000 HD
ATOM     15  H   LYS B   1       2.662  12.460   2.591  0.00  0.00    +0.000 HD
TER 
REMARK  Name = /data/user_data/xianyang/t3-aimnet-affinity-balanced/L3/P56528/pocket.pdb
REMARK                            x       y       z     vdW  Elec       q    Type
REMARK                         _______ _______ _______ _____ _____    ______ ____
ATOM      1  N   HIS C   1      -0.451  19.760  -2.086  0.00  0.00    +0.000 N 
ATOM      2  CA  HIS C   1      -1.603  19.636  -1.197  0.00  0.00    +0.000 C 
ATOM      3  C   HIS C   1      -2.085  20.997  -0.715  0.00  0.00    +0.000 C 
ATOM      4  O   HIS C   1      -3.290  21.217  -0.571  0.00  0.00    +0.000 OA
ATOM      5  CB  HIS C   1      -1.258  18.733  -0.010  0.00  0.00    +0.000 C 
ATOM      6  CG  HIS C   1      -1.140  17.278  -0.386  0.00  0.00    +0.000 A 
ATOM      7  ND1 HIS C   1      -0.879  16.290   0.539  0.00  0.00    +0.000 N 
ATOM      8  CD2 HIS C   1      -1.266  16.659  -1.590  0.00  0.00    +0.000 A 
ATOM      9  CE1 HIS C   1      -0.845  15.131  -0.084  0.00  0.00    +0.000 A 
ATOM     10  NE2 HIS C   1      -1.076  15.320  -1.369  0.00  0.00    +0.000 NA
ATOM     11  H   HIS C   1      -0.692  20.363  -2.873  0.00  0.00    +0.000 HD
ATOM     12  H   HIS C   1      -0.188  18.837  -2.433  0.00  0.00    +0.000 HD
ATOM     13  H   HIS C   1       0.332  20.166  -1.573  0.00  0.00    +0.000 HD
ATOM     14  H   HIS C   1      -0.741  16.428   1.504  0.00  0.00    +0.000 HD
TER 
REMARK  Name = /data/user_data/xianyang/t3-aimnet-affinity-balanced/L3/P56528/pocket.pdb
REMARK                            x       y       z     vdW  Elec       q    Type
REMARK                         _______ _______ _______ _____ _____    ______ ____
ATOM      1  N   LEU D   1      -4.040  12.905  -6.016  0.00  0.00    +0.000 N 
ATOM      2  CA  LEU D   1      -4.464  11.544  -5.710  0.00  0.00    +0.000 C 
ATOM      3  C   LEU D   1      -4.946  11.434  -4.268  0.00  0.00    +0.000 C 
ATOM      4  O   LEU D   1      -5.919  10.733  -3.982  0.00  0.00    +0.000 OA
ATOM      5  CB  LEU D   1      -3.317  10.565  -5.969  0.00  0.00    +0.000 C 
ATOM      6  CG  LEU D   1      -3.573   9.107  -5.601  0.00  0.00    +0.000 C 
ATOM      7  CD1 LEU D   1      -4.800   8.573  -6.313  0.00  0.00    +0.000 C 
ATOM      8  CD2 LEU D   1      -2.343   8.272  -5.928  0.00  0.00    +0.000 C 
ATOM      9  N   GLU D   2      -4.295  12.150  -3.361  0.00  0.00    +0.000 N 
ATOM     10  CA  GLU D   2      -4.647  12.092  -1.945  0.00  0.00    +0.000 C 
ATOM     11  C   GLU D   2      -5.949  12.830  -1.643  0.00  0.00    +0.000 C 
ATOM     12  O   GLU D   2      -6.456  12.744  -0.523  0.00  0.00    +0.000 OA
ATOM     13  CB  GLU D   2      -3.505  12.664  -1.104  0.00  0.00    +0.000 C 
ATOM     14  CG  GLU D   2      -2.205  11.892  -1.218  0.00  0.00    +0.000 C 
ATOM     15  CD  GLU D   2      -1.451  12.166  -2.519  0.00  0.00    +0.000 C 
ATOM     16  OE1 GLU D   2      -1.708  13.199  -3.165  0.00  0.00    +0.000 OA
ATOM     17  OE2 GLU D   2      -0.583  11.345  -2.884  0.00  0.00    +0.000 OA
ATOM     18  H   LEU D   1      -3.723  12.953  -6.984  0.00  0.00    +0.000 HD
ATOM     19  H   LEU D   1      -3.276  13.171  -5.394  0.00  0.00    +0.000 HD
ATOM     20  H   LEU D   1      -4.824  13.543  -5.883  0.00  0.00    +0.000 HD
ATOM     21  H   GLU D   2      -3.557  12.734  -3.649  0.00  0.00    +0.000 HD
TER 
REMARK  Name = /data/user_data/xianyang/t3-aimnet-affinity-balanced/L3/P56528/pocket.pdb
REMARK                            x       y       z     vdW  Elec       q    Type
REMARK                         _______ _______ _______ _____ _____    ______ ____
ATOM      1  N   GLY E   1      -7.072   7.584  -1.862  0.00  0.00    +0.000 N 
ATOM      2  CA  GLY E   1      -5.864   8.272  -1.456  0.00  0.00    +0.000 C 
ATOM      3  C   GLY E   1      -6.005   8.932  -0.098  0.00  0.00    +0.000 C 
ATOM      4  O   GLY E   1      -5.079   8.904   0.716  0.00  0.00    +0.000 OA
ATOM      5  H   GLY E   1      -6.929   7.158  -2.778  0.00  0.00    +0.000 HD
ATOM      6  H   GLY E   1      -7.842   8.251  -1.914  0.00  0.00    +0.000 HD
ATOM      7  H   GLY E   1      -7.296   6.859  -1.181  0.00  0.00    +0.000 HD
TER 
REMARK  Name = /data/user_data/xianyang/t3-aimnet-affinity-balanced/L3/P56528/pocket.pdb
REMARK                            x       y       z     vdW  Elec       q    Type
REMARK                         _______ _______ _______ _____ _____    ______ ____
ATOM      1  N   ALA F   1      -5.798   6.201   2.708  0.00  0.00    +0.000 N 
ATOM      2  CA  ALA F   1      -4.521   5.527   2.891  0.00  0.00    +0.000 C 
ATOM      3  C   ALA F   1      -3.368   6.468   3.207  0.00  0.00    +0.000 C 
ATOM      4  O   ALA F   1      -2.285   5.996   3.557  0.00  0.00    +0.000 OA
ATOM      5  CB  ALA F   1      -4.181   4.711   1.646  0.00  0.00    +0.000 C 
ATOM      6  N   ASP F   2      -3.563   7.763   3.107  0.00  0.00    +0.000 N 
ATOM      7  CA  ASP F   2      -2.472   8.710   3.288  0.00  0.00    +0.000 C 
ATOM      8  C   ASP F   2      -1.834   8.543   4.663  0.00  0.00    +0.000 C 
ATOM      9  O   ASP F   2      -2.506   8.592   5.688  0.00  0.00    +0.000 OA
ATOM     10  CB  ASP F   2      -2.982  10.139   3.107  0.00  0.00    +0.000 C 
ATOM     11  CG  ASP F   2      -1.862  11.146   2.905  0.00  0.00    +0.000 C 
ATOM     12  OD1 ASP F   2      -0.689  10.728   2.790  0.00  0.00    +0.000 OA
ATOM     13  OD2 ASP F   2      -2.167  12.355   2.845  0.00  0.00    +0.000 OA
ATOM     14  N   ASP F   3      -0.522   8.335   4.675  0.00  0.00    +0.000 N 
ATOM     15  CA  ASP F   3       0.288   8.217   5.879  0.00  0.00    +0.000 C 
ATOM     16  C   ASP F   3      -0.001   6.965   6.698  0.00  0.00    +0.000 C 
ATOM     17  O   ASP F   3       0.459   6.860   7.838  0.00  0.00    +0.000 OA
ATOM     18  CB  ASP F   3       0.145   9.459   6.765  0.00  0.00    +0.000 C 
ATOM     19  CG  ASP F   3       0.776  10.689   6.149  0.00  0.00    +0.000 C 
ATOM     20  OD1 ASP F   3       1.731  10.551   5.366  0.00  0.00    +0.000 OA
ATOM     21  OD2 ASP F   3       0.315  11.805   6.472  0.00  0.00    +0.000 OA
ATOM     22  N   LEU F   4      -0.730   6.013   6.154  0.00  0.00    +0.000 N 
ATOM     23  CA  LEU F   4      -0.972   4.756   6.838  0.00  0.00    +0.000 C 
ATOM     24  C   LEU F   4      -0.032   3.682   6.324  0.00  0.00    +0.000 C 
ATOM     25  O   LEU F   4       0.486   3.763   5.206  0.00  0.00    +0.000 OA
ATOM     26  CB  LEU F   4      -2.423   4.304   6.664  0.00  0.00    +0.000 C 
ATOM     27  CG  LEU F   4      -3.496   5.225   7.232  0.00  0.00    +0.000 C 
ATOM     28  CD1 LEU F   4      -4.870   4.590   7.076  0.00  0.00    +0.000 C 
ATOM     29  CD2 LEU F   4      -3.216   5.543   8.692  0.00  0.00    +0.000 C 
ATOM     30  H   ALA F   1      -6.520   5.511   2.500  0.00  0.00    +0.000 HD
ATOM     31  H   ALA F   1      -5.726   6.861   1.934  0.00  0.00    +0.000 HD
ATOM     32  H   ALA F   1      -6.043   6.703   3.561  0.00  0.00    +0.000 HD
ATOM     33  H   ASP F   2      -4.466   8.100   2.905  0.00  0.00    +0.000 HD
ATOM     34  H   ASP F   3      -0.064   8.255   3.807  0.00  0.00    +0.000 HD
ATOM     35  H   LEU F   4      -1.120   6.157   5.262  0.00  0.00    +0.000 HD
TER 
REMARK  Name = /data/user_data/xianyang/t3-aimnet-affinity-balanced/L3/P56528/pocket.pdb
REMARK                            x       y       z     vdW  Elec       q    Type
REMARK                         _______ _______ _______ _____ _____    ______ ____
ATOM      1  N   HIS G   1       9.760  -3.586   3.963  0.00  0.00    +0.000 N 
ATOM      2  CA  HIS G   1       9.903  -2.297   3.305  0.00  0.00    +0.000 C 
ATOM      3  C   HIS G   1      10.707  -2.502   2.034  0.00  0.00    +0.000 C 
ATOM      4  O   HIS G   1      11.416  -3.493   1.891  0.00  0.00    +0.000 OA
ATOM      5  CB  HIS G   1      10.589  -1.287   4.231  0.00  0.00    +0.000 C 
ATOM      6  CG  HIS G   1      10.532   0.128   3.748  0.00  0.00    +0.000 C 
ATOM      7  ND1 HIS G   1      11.518   0.674   2.959  0.00  0.00    +0.000 NA
ATOM      8  CD2 HIS G   1       9.610   1.101   3.929  0.00  0.00    +0.000 C 
ATOM      9  CE1 HIS G   1      11.209   1.929   2.680  0.00  0.00    +0.000 C 
ATOM     10  NE2 HIS G   1      10.051   2.206   3.258  0.00  0.00    +0.000 NA
ATOM     11  N   TRP G   2      10.571  -1.567   1.123  0.00  0.00    +0.000 N 
ATOM     12  CA  TRP G   2      11.351  -1.652  -0.105  0.00  0.00    +0.000 C 
ATOM     13  C   TRP G   2      12.841  -1.763   0.196  0.00  0.00    +0.000 C 
ATOM     14  O   TRP G   2      13.568  -2.479  -0.498  0.00  0.00    +0.000 OA
ATOM     15  CB  TRP G   2      11.071  -0.429  -0.979  0.00  0.00    +0.000 C 
ATOM     16  CG  TRP G   2      11.703  -0.503  -2.330  0.00  0.00    +0.000 C 
ATOM     17  CD1 TRP G   2      11.164  -1.044  -3.456  0.00  0.00    +0.000 C 
ATOM     18  CD2 TRP G   2      12.991  -0.020  -2.706  0.00  0.00    +0.000 C 
ATOM     19  NE1 TRP G   2      12.036  -0.928  -4.504  0.00  0.00    +0.000 NA
ATOM     20  CE2 TRP G   2      13.161  -0.306  -4.079  0.00  0.00    +0.000 C 
ATOM     21  CE3 TRP G   2      14.021   0.634  -2.007  0.00  0.00    +0.000 C 
ATOM     22  CZ2 TRP G   2      14.319   0.032  -4.765  0.00  0.00    +0.000 C 
ATOM     23  CZ3 TRP G   2      15.169   0.973  -2.704  0.00  0.00    +0.000 C 
ATOM     24  CH2 TRP G   2      15.311   0.673  -4.065  0.00  0.00    +0.000 C 
ATOM     25  H   HIS G   1       9.302  -4.242   3.330  0.00  0.00    +0.000 HD
ATOM     26  H   HIS G   1       9.196  -3.477   4.806  0.00  0.00    +0.000 HD
ATOM     27  H   HIS G   1      10.682  -3.943   4.214  0.00  0.00    +0.000 HD
ATOM     28  H   TRP G   2       9.950  -0.817   1.268  0.00  0.00    +0.000 HD
TER 
REMARK  Name = /data/user_data/xianyang/t3-aimnet-affinity-balanced/L3/P56528/pocket.pdb
REMARK                            x       y       z     vdW  Elec       q    Type
REMARK                         _______ _______ _______ _____ _____    ______ ____
ATOM      1  N   ASN H   1       5.614  -4.758  -1.983  0.00  0.00    +0.000 N 
ATOM      2  CA  ASN H   1       4.871  -4.796  -0.737  0.00  0.00    +0.000 C 
ATOM      3  C   ASN H   1       3.493  -4.163  -0.926  0.00  0.00    +0.000 C 
ATOM      4  O   ASN H   1       3.251  -3.462  -1.911  0.00  0.00    +0.000 OA
ATOM      5  CB  ASN H   1       5.661  -4.096   0.376  0.00  0.00    +0.000 C 
ATOM      6  CG  ASN H   1       5.892  -2.630   0.100  0.00  0.00    +0.000 C 
ATOM      7  OD1 ASN H   1       4.973  -1.822   0.228  0.00  0.00    +0.000 OA
ATOM      8  ND2 ASN H   1       7.108  -2.278  -0.268  0.00  0.00    +0.000 N 
ATOM      9  H   ASN H   1       5.078  -5.226  -2.713  0.00  0.00    +0.000 HD
ATOM     10  H   ASN H   1       6.508  -5.233  -1.860  0.00  0.00    +0.000 HD
ATOM     11  H   ASN H   1       5.778  -3.788  -2.251  0.00  0.00    +0.000 HD
ATOM     12  H   ASN H   1       7.310  -1.334  -0.460  0.00  0.00    +0.000 HD
ATOM     13  H   ASN H   1       7.814  -2.959  -0.351  0.00  0.00    +0.000 HD
TER 
REMARK  Name = /data/user_data/xianyang/t3-aimnet-affinity-balanced/L3/P56528/pocket.pdb
REMARK                            x       y       z     vdW  Elec       q    Type
REMARK                         _______ _______ _______ _____ _____    ______ ____
ATOM      1  N   ILE I   1       1.880  -1.647   0.343  0.00  0.00    +0.000 N 
ATOM      2  CA  ILE I   1       1.758  -0.196   0.272  0.00  0.00    +0.000 C 
ATOM      3  C   ILE I   1       2.223   0.314  -1.086  0.00  0.00    +0.000 C 
ATOM      4  O   ILE I   1       1.546   1.128  -1.724  0.00  0.00    +0.000 OA
ATOM      5  CB  ILE I   1       2.549   0.471   1.414  0.00  0.00    +0.000 C 
ATOM      6  CG1 ILE I   1       1.993   0.024   2.768  0.00  0.00    +0.000 C 
ATOM      7  CG2 ILE I   1       2.492   1.987   1.288  0.00  0.00    +0.000 C 
ATOM      8  CD1 ILE I   1       2.821   0.483   3.948  0.00  0.00    +0.000 C 
ATOM      9  N   THR I   2       3.380  -0.155  -1.536  0.00  0.00    +0.000 N 
ATOM     10  CA  THR I   2       3.901   0.290  -2.820  0.00  0.00    +0.000 C 
ATOM     11  C   THR I   2       2.944  -0.068  -3.948  0.00  0.00    +0.000 C 
ATOM     12  O   THR I   2       2.646   0.761  -4.819  0.00  0.00    +0.000 OA
ATOM     13  CB  THR I   2       5.280  -0.316  -3.070  0.00  0.00    +0.000 C 
ATOM     14  OG1 THR I   2       6.186   0.144  -2.060  0.00  0.00    +0.000 OA
ATOM     15  CG2 THR I   2       5.796   0.078  -4.445  0.00  0.00    +0.000 C 
ATOM     16  H   ILE I   1       1.351  -2.070  -0.419  0.00  0.00    +0.000 HD
ATOM     17  H   ILE I   1       1.512  -1.976   1.236  0.00  0.00    +0.000 HD
ATOM     18  H   ILE I   1       2.862  -1.910   0.262  0.00  0.00    +0.000 HD
ATOM     19  H   THR I   2       3.888  -0.806  -1.000  0.00  0.00    +0.000 HD
ATOM     20  H   THR I   2       6.250   1.111  -2.099  0.00  0.00    +0.000 HD
TER 
REMARK  Name = /data/user_data/xianyang/t3-aimnet-affinity-balanced/L3/P56528/pocket.pdb
REMARK                            x       y       z     vdW  Elec       q    Type
REMARK                         _______ _______ _______ _____ _____    ______ ____
ATOM      1  N   TRP J   1      -0.324   2.157  -3.971  0.00  0.00    +0.000 N 
ATOM      2  CA  TRP J   1      -0.188   3.509  -4.508  0.00  0.00    +0.000 C 
ATOM      3  C   TRP J   1       0.040   3.500  -6.010  0.00  0.00    +0.000 C 
ATOM      4  O   TRP J   1      -0.424   4.397  -6.715  0.00  0.00    +0.000 OA
ATOM      5  CB  TRP J   1       0.938   4.256  -3.785  0.00  0.00    +0.000 C 
ATOM      6  CG  TRP J   1       0.521   4.700  -2.415  0.00  0.00    +0.000 C 
ATOM      7  CD1 TRP J   1       0.979   4.221  -1.222  0.00  0.00    +0.000 C 
ATOM      8  CD2 TRP J   1      -0.463   5.688  -2.103  0.00  0.00    +0.000 A 
ATOM      9  NE1 TRP J   1       0.343   4.862  -0.181  0.00  0.00    +0.000 NA
ATOM     10  CE2 TRP J   1      -0.546   5.765  -0.688  0.00  0.00    +0.000 A 
ATOM     11  CE3 TRP J   1      -1.285   6.522  -2.871  0.00  0.00    +0.000 A 
ATOM     12  CZ2 TRP J   1      -1.415   6.642  -0.044  0.00  0.00    +0.000 A 
ATOM     13  CZ3 TRP J   1      -2.145   7.391  -2.225  0.00  0.00    +0.000 A 
ATOM     14  CH2 TRP J   1      -2.205   7.450  -0.828  0.00  0.00    +0.000 A 
ATOM     15  N   LYS J   2       0.725   2.478  -6.511  0.00  0.00    +0.000 N 
ATOM     16  CA  LYS J   2       0.924   2.400  -7.954  0.00  0.00    +0.000 C 
ATOM     17  C   LYS J   2      -0.381   2.116  -8.685  0.00  0.00    +0.000 C 
ATOM     18  O   LYS J   2      -0.661   2.709  -9.732  0.00  0.00    +0.000 OA
ATOM     19  CB  LYS J   2       1.968   1.336  -8.291  0.00  0.00    +0.000 C 
ATOM     20  CG  LYS J   2       3.385   1.744  -7.924  0.00  0.00    +0.000 C 
ATOM     21  CD  LYS J   2       4.400   0.711  -8.401  0.00  0.00    +0.000 C 
ATOM     22  CE  LYS J   2       5.820   1.150  -8.109  0.00  0.00    +0.000 C 
ATOM     23  NZ  LYS J   2       6.818   0.155  -8.589  0.00  0.00    +0.000 N 
ATOM     24  H   TRP J   1      -1.076   1.671  -4.460  0.00  0.00    +0.000 HD
ATOM     25  H   TRP J   1      -0.542   2.207  -2.976  0.00  0.00    +0.000 HD
ATOM     26  H   TRP J   1       0.551   1.649  -4.102  0.00  0.00    +0.000 HD
ATOM     27  H   LYS J   2       1.093   1.784  -5.918  0.00  0.00    +0.000 HD
ATOM     28  H   LYS J   2       6.734   0.050  -9.600  0.00  0.00    +0.000 HD
ATOM     29  H   LYS J   2       6.646  -0.744  -8.138  0.00  0.00    +0.000 HD
ATOM     30  H   LYS J   2       7.758   0.477  -8.357  0.00  0.00    +0.000 HD
TER 
REMARK  Name = /data/user_data/xianyang/t3-aimnet-affinity-balanced/L3/P56528/pocket.pdb
REMARK                            x       y       z     vdW  Elec       q    Type
REMARK                         _______ _______ _______ _____ _____    ______ ____
ATOM      1  N   SER K   1      -2.678   5.100  -8.455  0.00  0.00    +0.000 N 
ATOM      2  CA  SER K   1      -2.105   6.158  -9.279  0.00  0.00    +0.000 C 
ATOM      3  C   SER K   1      -2.427   5.926 -10.749  0.00  0.00    +0.000 C 
ATOM      4  O   SER K   1      -2.739   6.871 -11.481  0.00  0.00    +0.000 OA
ATOM      5  CB  SER K   1      -0.592   6.238  -9.075  0.00  0.00    +0.000 C 
ATOM      6  OG  SER K   1      -0.271   6.587  -7.736  0.00  0.00    +0.000 OA
ATOM      7  H   SER K   1      -3.686   5.061  -8.604  0.00  0.00    +0.000 HD
ATOM      8  H   SER K   1      -2.487   5.293  -7.472  0.00  0.00    +0.000 HD
ATOM      9  H   SER K   1      -2.262   4.205  -8.713  0.00  0.00    +0.000 HD
ATOM     10  H   SER K   1      -0.646   7.457  -7.530  0.00  0.00    +0.000 HD
TER 
REMARK  Name = /data/user_data/xianyang/t3-aimnet-affinity-balanced/L3/P56528/pocket.pdb
REMARK                            x       y       z     vdW  Elec       q    Type
REMARK                         _______ _______ _______ _____ _____    ______ ____
ATOM      1  N   THR L   1       6.684   7.772  -9.174  0.00  0.00    +0.000 N 
ATOM      2  CA  THR L   1       5.359   7.237  -9.465  0.00  0.00    +0.000 C 
ATOM      3  C   THR L   1       4.726   7.962 -10.649  0.00  0.00    +0.000 C 
ATOM      4  O   THR L   1       4.089   7.336 -11.499  0.00  0.00    +0.000 OA
ATOM      5  CB  THR L   1       4.458   7.343  -8.230  0.00  0.00    +0.000 C 
ATOM      6  OG1 THR L   1       5.068   6.641  -7.143  0.00  0.00    +0.000 OA
ATOM      7  CG2 THR L   1       3.090   6.750  -8.510  0.00  0.00    +0.000 C 
ATOM      8  H   THR L   1       7.272   7.695 -10.004  0.00  0.00    +0.000 HD
ATOM      9  H   THR L   1       7.104   7.243  -8.410  0.00  0.00    +0.000 HD
ATOM     10  H   THR L   1       6.603   8.752  -8.905  0.00  0.00    +0.000 HD
ATOM     11  H   THR L   1       5.174   5.707  -7.381  0.00  0.00    +0.000 HD
TER 
REMARK  Name = /data/user_data/xianyang/t3-aimnet-affinity-balanced/L3/P56528/pocket.pdb
REMARK                            x       y       z     vdW  Elec       q    Type
REMARK                         _______ _______ _______ _____ _____    ______ ____
ATOM      1  N   GLU M   1       1.972   7.131 -13.788  0.00  0.00    +0.000 N 
ATOM      2  CA  GLU M   1       0.858   8.021 -14.101  0.00  0.00    +0.000 C 
ATOM      3  C   GLU M   1       0.944   8.591 -15.512  0.00  0.00    +0.000 C 
ATOM      4  O   GLU M   1      -0.053   8.606 -16.245  0.00  0.00    +0.000 OA
ATOM      5  CB  GLU M   1       0.789   9.143 -13.061  0.00  0.00    +0.000 C 
ATOM      6  CG  GLU M   1       0.410   8.642 -11.672  0.00  0.00    +0.000 C 
ATOM      7  CD  GLU M   1       0.599   9.678 -10.587  0.00  0.00    +0.000 C 
ATOM      8  OE1 GLU M   1       1.411  10.603 -10.780  0.00  0.00    +0.000 OA
ATOM      9  OE2 GLU M   1      -0.058   9.563  -9.535  0.00  0.00    +0.000 OA
ATOM     10  H   GLU M   1       2.016   6.385 -14.482  0.00  0.00    +0.000 HD
ATOM     11  H   GLU M   1       1.834   6.727 -12.862  0.00  0.00    +0.000 HD
ATOM     12  H   GLU M   1       2.844   7.660 -13.802  0.00  0.00    +0.000 HD
TER 
