REMARK  Name = /home/xianyang/aimnet2_score_pipelines/work/L1234-fixed-receptor-eint-20260921/L3/Q00961/prepared.pdb
REMARK                            x       y       z     vdW  Elec       q    Type
REMARK                         _______ _______ _______ _____ _____    ______ ____
ATOM      1  CH3 ACE A   1     120.190 168.041 179.235  0.00  0.00    +0.000 C 
ATOM      2  C   ACE A   1     121.560 167.678 178.689  0.00  0.00    +0.000 C 
ATOM      3  O   ACE A   1     122.294 166.849 179.227  0.00  0.00    +0.000 OA
ATOM      4  N   LYS A   2     121.901 168.330 177.586  0.00  0.00    +0.000 N 
ATOM      5  H   LYS A   2     121.275 169.049 177.261  0.00  0.00    +0.000 HD
ATOM      6  CA  LYS A   2     123.166 168.128 176.895  0.00  0.00    +0.000 C 
ATOM      7  C   LYS A   2     124.223 169.044 177.513  0.00  0.00    +0.000 C 
ATOM      8  O   LYS A   2     124.050 169.531 178.632  0.00  0.00    +0.000 OA
ATOM      9  CB  LYS A   2     122.974 168.349 175.392  0.00  0.00    +0.000 C 
ATOM     10  CG  LYS A   2     121.902 167.460 174.785  0.00  0.00    +0.000 C 
ATOM     11  CD  LYS A   2     122.242 165.992 174.978  0.00  0.00    +0.000 C 
ATOM     12  CE  LYS A   2     121.127 165.093 174.479  0.00  0.00    +0.000 C 
ATOM     13  NZ  LYS A   2     121.451 163.653 174.665  0.00  0.00    +0.000 N 
ATOM     14  HZ1 LYS A   2     120.706 163.074 174.298  0.00  0.00    +0.000 HD
ATOM     15  HZ2 LYS A   2     121.571 163.428 175.646  0.00  0.00    +0.000 HD
ATOM     16  HZ3 LYS A   2     122.306 163.416 174.177  0.00  0.00    +0.000 HD
ATOM     17  N   HIS A   3     125.336 169.259 176.807  0.00  0.00    +0.000 N 
ATOM     18  H   HIS A   3     125.451 168.762 175.939  0.00  0.00    +0.000 HD
ATOM     19  CA  HIS A   3     126.463 170.071 177.262  0.00  0.00    +0.000 C 
ATOM     20  C   HIS A   3     126.042 171.333 178.006  0.00  0.00    +0.000 C 
ATOM     21  O   HIS A   3     126.664 171.700 179.006  0.00  0.00    +0.000 OA
ATOM     22  CB  HIS A   3     127.338 170.445 176.068  0.00  0.00    +0.000 C 
ATOM     23  CG  HIS A   3     127.773 169.269 175.253  0.00  0.00    +0.000 A 
ATOM     24  ND1 HIS A   3     127.172 168.929 174.061  0.00  0.00    +0.000 N 
ATOM     25  HD1 HIS A   3     126.490 169.476 173.558  0.00  0.00    +0.000 HD
ATOM     26  CD2 HIS A   3     128.750 168.356 175.457  0.00  0.00    +0.000 A 
ATOM     27  CE1 HIS A   3     127.758 167.852 173.568  0.00  0.00    +0.000 A 
ATOM     28  NE2 HIS A   3     128.720 167.487 174.394  0.00  0.00    +0.000 NA
ATOM     29  N   GLY A   4     124.993 172.003 177.539  0.00  0.00    +0.000 N 
ATOM     30  H   GLY A   4     124.497 171.652 176.738  0.00  0.00    +0.000 HD
ATOM     31  CA  GLY A   4     124.436 173.108 178.294  0.00  0.00    +0.000 C 
ATOM     32  C   GLY A   4     123.847 174.229 177.466  0.00  0.00    +0.000 C 
ATOM     33  O   GLY A   4     124.480 174.721 176.528  0.00  0.00    +0.000 OA
ATOM     34  N   LYS A   5     122.633 174.645 177.817  0.00  0.00    +0.000 N 
ATOM     35  H   LYS A   5     122.177 174.219 178.615  0.00  0.00    +0.000 HD
ATOM     36  CA  LYS A   5     121.948 175.748 177.160  0.00  0.00    +0.000 C 
ATOM     37  C   LYS A   5     121.089 176.472 178.182  0.00  0.00    +0.000 C 
ATOM     38  O   LYS A   5     120.413 175.836 178.993  0.00  0.00    +0.000 OA
ATOM     39  CB  LYS A   5     121.075 175.263 175.994  0.00  0.00    +0.000 C 
ATOM     40  CG  LYS A   5     119.828 176.107 175.760  0.00  0.00    +0.000 C 
ATOM     41  CD  LYS A   5     118.951 175.537 174.658  0.00  0.00    +0.000 C 
ATOM     42  CE  LYS A   5     119.365 176.067 173.295  0.00  0.00    +0.000 C 
ATOM     43  NZ  LYS A   5     119.093 177.523 173.159  0.00  0.00    +0.000 N 
ATOM     44  HZ1 LYS A   5     119.698 178.063 173.750  0.00  0.00    +0.000 HD
ATOM     45  HZ2 LYS A   5     119.240 177.749 172.170  0.00  0.00    +0.000 HD
ATOM     46  HZ3 LYS A   5     118.118 177.705 173.354  0.00  0.00    +0.000 HD
ATOM     47  N   NME A   6     121.116 177.801 178.140  0.00  0.00    +0.000 N 
ATOM     48  H   NME A   6     121.773 178.266 177.531  0.00  0.00    +0.000 HD
ATOM     49  C   NME A   6     120.307 178.592 179.056  0.00  0.00    +0.000 C 
TER 
REMARK  Name = /home/xianyang/aimnet2_score_pipelines/work/L1234-fixed-receptor-eint-20260921/L3/Q00961/prepared.pdb
REMARK                            x       y       z     vdW  Elec       q    Type
REMARK                         _______ _______ _______ _____ _____    ______ ____
ATOM      1  CH3 ACE B   1     135.286 167.640 181.455  0.00  0.00    +0.000 C 
ATOM      2  C   ACE B   1     134.528 166.904 180.362  0.00  0.00    +0.000 C 
ATOM      3  O   ACE B   1     133.520 166.240 180.617  0.00  0.00    +0.000 OA
ATOM      4  N   GLY B   2     135.017 167.029 179.133  0.00  0.00    +0.000 N 
ATOM      5  H   GLY B   2     135.816 167.622 178.964  0.00  0.00    +0.000 HD
ATOM      6  CA  GLY B   2     134.369 166.399 178.002  0.00  0.00    +0.000 C 
ATOM      7  C   GLY B   2     134.440 167.239 176.745  0.00  0.00    +0.000 C 
ATOM      8  O   GLY B   2     135.401 167.986 176.544  0.00  0.00    +0.000 OA
ATOM      9  N   SER B   3     133.427 167.122 175.889  0.00  0.00    +0.000 N 
ATOM     10  H   SER B   3     132.693 166.452 176.065  0.00  0.00    +0.000 HD
ATOM     11  CA  SER B   3     133.359 167.910 174.659  0.00  0.00    +0.000 C 
ATOM     12  C   SER B   3     132.630 169.224 174.939  0.00  0.00    +0.000 C 
ATOM     13  O   SER B   3     131.493 169.452 174.526  0.00  0.00    +0.000 OA
ATOM     14  CB  SER B   3     132.678 167.112 173.557  0.00  0.00    +0.000 C 
ATOM     15  OG  SER B   3     133.254 165.825 173.434  0.00  0.00    +0.000 OA
ATOM     16  HG  SER B   3     134.165 165.931 173.140  0.00  0.00    +0.000 HD
ATOM     17  N   LEU B   4     133.318 170.099 175.664  0.00  0.00    +0.000 N 
ATOM     18  H   LEU B   4     134.251 169.844 175.968  0.00  0.00    +0.000 HD
ATOM     19  CA  LEU B   4     132.775 171.386 176.082  0.00  0.00    +0.000 C 
ATOM     20  C   LEU B   4     133.543 172.499 175.383  0.00  0.00    +0.000 C 
ATOM     21  O   LEU B   4     134.749 172.648 175.593  0.00  0.00    +0.000 OA
ATOM     22  CB  LEU B   4     132.862 171.539 177.600  0.00  0.00    +0.000 C 
ATOM     23  CG  LEU B   4     131.866 172.491 178.253  0.00  0.00    +0.000 C 
ATOM     24  CD1 LEU B   4     130.449 172.045 177.982  0.00  0.00    +0.000 C 
ATOM     25  CD2 LEU B   4     132.121 172.564 179.737  0.00  0.00    +0.000 C 
ATOM     26  N   THR B   5     132.845 173.280 174.564  0.00  0.00    +0.000 N 
ATOM     27  H   THR B   5     131.910 173.009 174.307  0.00  0.00    +0.000 HD
ATOM     28  CA  THR B   5     133.473 174.343 173.794  0.00  0.00    +0.000 C 
ATOM     29  C   THR B   5     133.491 175.642 174.585  0.00  0.00    +0.000 C 
ATOM     30  O   THR B   5     132.509 176.000 175.239  0.00  0.00    +0.000 OA
ATOM     31  CB  THR B   5     132.742 174.564 172.470  0.00  0.00    +0.000 C 
ATOM     32  OG1 THR B   5     131.332 174.440 172.678  0.00  0.00    +0.000 OA
ATOM     33  HG1 THR B   5     131.079 175.244 173.137  0.00  0.00    +0.000 HD
ATOM     34  CG2 THR B   5     133.186 173.550 171.436  0.00  0.00    +0.000 C 
ATOM     35  N   ILE B   6     134.620 176.345 174.517  0.00  0.00    +0.000 N 
ATOM     36  H   ILE B   6     135.426 175.955 174.037  0.00  0.00    +0.000 HD
ATOM     37  CA  ILE B   6     134.750 177.634 175.181  0.00  0.00    +0.000 C 
ATOM     38  C   ILE B   6     134.049 178.699 174.351  0.00  0.00    +0.000 C 
ATOM     39  O   ILE B   6     134.317 178.849 173.153  0.00  0.00    +0.000 OA
ATOM     40  CB  ILE B   6     136.231 177.982 175.388  0.00  0.00    +0.000 C 
ATOM     41  CG1 ILE B   6     136.934 176.888 176.189  0.00  0.00    +0.000 C 
ATOM     42  CG2 ILE B   6     136.373 179.320 176.076  0.00  0.00    +0.000 C 
ATOM     43  CD1 ILE B   6     138.431 177.020 176.203  0.00  0.00    +0.000 C 
ATOM     44  N   ASN B   7     133.144 179.442 174.981  0.00  0.00    +0.000 N 
ATOM     45  H   ASN B   7     132.995 179.341 175.976  0.00  0.00    +0.000 HD
ATOM     46  CA  ASN B   7     132.473 180.545 174.311  0.00  0.00    +0.000 C 
ATOM     47  C   ASN B   7     132.139 181.617 175.340  0.00  0.00    +0.000 C 
ATOM     48  O   ASN B   7     132.222 181.392 176.549  0.00  0.00    +0.000 OA
ATOM     49  CB  ASN B   7     131.246 180.057 173.521  0.00  0.00    +0.000 C 
ATOM     50  CG  ASN B   7     130.102 179.582 174.402  0.00  0.00    +0.000 C 
ATOM     51  OD1 ASN B   7     130.044 179.860 175.595  0.00  0.00    +0.000 OA
ATOM     52  ND2 ASN B   7     129.174 178.853 173.797  0.00  0.00    +0.000 N 
ATOM     53 HD21 ASN B   7     128.335 178.710 174.337  0.00  0.00    +0.000 HD
ATOM     54 HD22 ASN B   7     129.191 178.774 172.798  0.00  0.00    +0.000 HD
ATOM     55  N   GLU B   8     131.774 182.800 174.843  0.00  0.00    +0.000 N 
ATOM     56  H   GLU B   8     131.724 182.942 173.847  0.00  0.00    +0.000 HD
ATOM     57  CA  GLU B   8     131.635 183.964 175.715  0.00  0.00    +0.000 C 
ATOM     58  C   GLU B   8     130.530 183.767 176.746  0.00  0.00    +0.000 C 
ATOM     59  O   GLU B   8     130.702 184.098 177.926  0.00  0.00    +0.000 OA
ATOM     60  CB  GLU B   8     131.366 185.216 174.882  0.00  0.00    +0.000 C 
ATOM     61  CG  GLU B   8     131.350 186.494 175.702  0.00  0.00    +0.000 C 
ATOM     62  CD  GLU B   8     130.437 187.555 175.120  0.00  0.00    +0.000 C 
ATOM     63  OE1 GLU B   8     129.556 187.206 174.306  0.00  0.00    +0.000 OA
ATOM     64  OE2 GLU B   8     130.594 188.739 175.485  0.00  0.00    +0.000 OA
ATOM     65  N   GLU B   9     129.382 183.234 176.320  0.00  0.00    +0.000 N 
ATOM     66  H   GLU B   9     129.257 183.034 175.342  0.00  0.00    +0.000 HD
ATOM     67  CA  GLU B   9     128.250 183.121 177.234  0.00  0.00    +0.000 C 
ATOM     68  C   GLU B   9     128.554 182.179 178.391  0.00  0.00    +0.000 C 
ATOM     69  O   GLU B   9     128.043 182.375 179.498  0.00  0.00    +0.000 OA
ATOM     70  CB  GLU B   9     126.999 182.665 176.479  0.00  0.00    +0.000 C 
ATOM     71  CG  GLU B   9     126.719 181.174 176.552  0.00  0.00    +0.000 C 
ATOM     72  CD  GLU B   9     125.453 180.775 175.821  0.00  0.00    +0.000 C 
ATOM     73  OE1 GLU B   9     124.783 181.667 175.261  0.00  0.00    +0.000 OA
ATOM     74  OE2 GLU B   9     125.129 179.569 175.808  0.00  0.00    +0.000 OA
ATOM     75  N   ARG B  10     129.384 181.159 178.165  0.00  0.00    +0.000 N 
ATOM     76  H   ARG B  10     129.766 181.021 177.234  0.00  0.00    +0.000 HD
ATOM     77  CA  ARG B  10     129.769 180.276 179.258  0.00  0.00    +0.000 C 
ATOM     78  C   ARG B  10     130.928 180.855 180.056  0.00  0.00    +0.000 C 
ATOM     79  O   ARG B  10     130.967 180.721 181.283  0.00  0.00    +0.000 OA
ATOM     80  CB  ARG B  10     130.138 178.895 178.721  0.00  0.00    +0.000 C 
ATOM     81  CG  ARG B  10     129.001 178.155 178.052  0.00  0.00    +0.000 C 
ATOM     82  CD  ARG B  10     129.523 176.952 177.294  0.00  0.00    +0.000 C 
ATOM     83  NE  ARG B  10     128.452 176.197 176.661  0.00  0.00    +0.000 N 
ATOM     84  HE  ARG B  10     127.507 176.523 176.803  0.00  0.00    +0.000 HD
ATOM     85  CZ  ARG B  10     128.641 175.135 175.892  0.00  0.00    +0.000 C 
ATOM     86  NH1 ARG B  10     129.852 174.670 175.644  0.00  0.00    +0.000 N 
ATOM     87 HH11 ARG B  10     129.969 173.847 175.086  0.00  0.00    +0.000 HD
ATOM     88 HH12 ARG B  10     130.664 175.196 175.950  0.00  0.00    +0.000 HD
ATOM     89  NH2 ARG B  10     127.588 174.526 175.357  0.00  0.00    +0.000 N 
ATOM     90 HH21 ARG B  10     127.719 173.734 174.762  0.00  0.00    +0.000 HD
ATOM     91 HH22 ARG B  10     126.653 174.799 175.645  0.00  0.00    +0.000 HD
ATOM     92  N   SER B  11     131.877 181.503 179.380  0.00  0.00    +0.000 N 
ATOM     93  H   SER B  11     131.815 181.578 178.371  0.00  0.00    +0.000 HD
ATOM     94  CA  SER B  11     133.022 182.072 180.077  0.00  0.00    +0.000 C 
ATOM     95  C   SER B  11     132.629 183.229 180.981  0.00  0.00    +0.000 C 
ATOM     96  O   SER B  11     133.384 183.563 181.900  0.00  0.00    +0.000 OA
ATOM     97  CB  SER B  11     134.078 182.529 179.073  0.00  0.00    +0.000 C 
ATOM     98  OG  SER B  11     134.776 181.422 178.536  0.00  0.00    +0.000 OA
ATOM     99  HG  SER B  11     135.292 181.028 179.241  0.00  0.00    +0.000 HD
ATOM    100  N   NME B  12     131.477 183.857 180.742  0.00  0.00    +0.000 N 
ATOM    101  H   NME B  12     130.933 183.633 179.914  0.00  0.00    +0.000 HD
ATOM    102  C   NME B  12     131.020 184.898 181.657  0.00  0.00    +0.000 C 
TER 
REMARK  Name = /home/xianyang/aimnet2_score_pipelines/work/L1234-fixed-receptor-eint-20260921/L3/Q00961/prepared.pdb
REMARK                            x       y       z     vdW  Elec       q    Type
REMARK                         _______ _______ _______ _____ _____    ______ ____
ATOM      1  CH3 ACE C   1     121.120 171.334 156.109  0.00  0.00    +0.000 C 
ATOM      2  C   ACE C   1     120.606 171.656 157.504  0.00  0.00    +0.000 C 
ATOM      3  O   ACE C   1     119.739 172.521 157.665  0.00  0.00    +0.000 OA
ATOM      4  N   GLY C   2     121.131 170.956 158.507  0.00  0.00    +0.000 N 
ATOM      5  H   GLY C   2     121.869 170.294 158.326  0.00  0.00    +0.000 HD
ATOM      6  CA  GLY C   2     120.684 171.133 159.872  0.00  0.00    +0.000 C 
ATOM      7  C   GLY C   2     121.775 170.773 160.857  0.00  0.00    +0.000 C 
ATOM      8  O   GLY C   2     122.869 170.350 160.478  0.00  0.00    +0.000 OA
ATOM      9  N   THR C   3     121.459 170.939 162.139  0.00  0.00    +0.000 N 
ATOM     10  H   THR C   3     120.526 171.224 162.406  0.00  0.00    +0.000 HD
ATOM     11  CA  THR C   3     122.428 170.723 163.203  0.00  0.00    +0.000 C 
ATOM     12  C   THR C   3     121.705 170.273 164.462  0.00  0.00    +0.000 C 
ATOM     13  O   THR C   3     120.491 170.443 164.598  0.00  0.00    +0.000 OA
ATOM     14  CB  THR C   3     123.241 171.990 163.488  0.00  0.00    +0.000 C 
ATOM     15  OG1 THR C   3     124.324 171.675 164.370  0.00  0.00    +0.000 OA
ATOM     16  HG1 THR C   3     125.116 171.559 163.800  0.00  0.00    +0.000 HD
ATOM     17  CG2 THR C   3     122.367 173.053 164.128  0.00  0.00    +0.000 C 
ATOM     18  N   VAL C   4     122.468 169.694 165.385  0.00  0.00    +0.000 N 
ATOM     19  H   VAL C   4     123.471 169.761 165.278  0.00  0.00    +0.000 HD
ATOM     20  CA  VAL C   4     121.926 169.233 166.661  0.00  0.00    +0.000 C 
ATOM     21  C   VAL C   4     121.662 170.441 167.554  0.00  0.00    +0.000 C 
ATOM     22  O   VAL C   4     122.578 171.236 167.806  0.00  0.00    +0.000 OA
ATOM     23  CB  VAL C   4     122.873 168.235 167.342  0.00  0.00    +0.000 C 
ATOM     24  CG1 VAL C   4     122.233 167.677 168.597  0.00  0.00    +0.000 C 
ATOM     25  CG2 VAL C   4     123.230 167.113 166.387  0.00  0.00    +0.000 C 
ATOM     26  N   PRO C   5     120.446 170.618 168.048  0.00  0.00    +0.000 N 
ATOM     27  CA  PRO C   5     120.110 171.806 168.839  0.00  0.00    +0.000 C 
ATOM     28  C   PRO C   5     120.676 171.713 170.252  0.00  0.00    +0.000 C 
ATOM     29  O   PRO C   5     121.199 170.686 170.678  0.00  0.00    +0.000 OA
ATOM     30  CB  PRO C   5     118.578 171.819 168.867  0.00  0.00    +0.000 C 
ATOM     31  CG  PRO C   5     118.124 170.580 168.214  0.00  0.00    +0.000 C 
ATOM     32  CD  PRO C   5     119.273 169.808 167.686  0.00  0.00    +0.000 C 
ATOM     33  N   ASN C   6     120.547 172.823 170.982  0.00  0.00    +0.000 N 
ATOM     34  H   ASN C   6     120.046 173.602 170.552  0.00  0.00    +0.000 HD
ATOM     35  CA  ASN C   6     121.039 172.956 172.352  0.00  0.00    +0.000 C 
ATOM     36  C   ASN C   6     122.543 172.683 172.429  0.00  0.00    +0.000 C 
ATOM     37  O   ASN C   6     123.005 171.737 173.069  0.00  0.00    +0.000 OA
ATOM     38  CB  ASN C   6     120.261 172.054 173.314  0.00  0.00    +0.000 C 
ATOM     39  CG  ASN C   6     118.782 172.001 173.000  0.00  0.00    +0.000 C 
ATOM     40  OD1 ASN C   6     118.158 173.021 172.713  0.00  0.00    +0.000 OA
ATOM     41  ND2 ASN C   6     118.211 170.806 173.064  0.00  0.00    +0.000 N 
ATOM     42 HD21 ASN C   6     117.244 170.774 172.795  0.00  0.00    +0.000 HD
ATOM     43 HD22 ASN C   6     118.781 169.992 173.180  0.00  0.00    +0.000 HD
ATOM     44  N   GLY C   7     123.303 173.542 171.759  0.00  0.00    +0.000 N 
ATOM     45  H   GLY C   7     122.871 174.264 171.199  0.00  0.00    +0.000 HD
ATOM     46  CA  GLY C   7     124.748 173.453 171.786  0.00  0.00    +0.000 C 
ATOM     47  C   GLY C   7     125.354 174.799 171.463  0.00  0.00    +0.000 C 
ATOM     48  O   GLY C   7     124.651 175.793 171.274  0.00  0.00    +0.000 OA
ATOM     49  N   SER C   8     126.686 174.822 171.412  0.00  0.00    +0.000 N 
ATOM     50  H   SER C   8     127.221 173.965 171.447  0.00  0.00    +0.000 HD
ATOM     51  CA  SER C   8     127.380 176.062 171.082  0.00  0.00    +0.000 C 
ATOM     52  C   SER C   8     127.142 176.456 169.632  0.00  0.00    +0.000 C 
ATOM     53  O   SER C   8     127.030 177.645 169.315  0.00  0.00    +0.000 OA
ATOM     54  CB  SER C   8     128.875 175.923 171.359  0.00  0.00    +0.000 C 
ATOM     55  OG  SER C   8     129.435 174.862 170.608  0.00  0.00    +0.000 OA
ATOM     56  HG  SER C   8     130.246 174.523 171.018  0.00  0.00    +0.000 HD
ATOM     57  N   THR C   9     127.069 175.470 168.734  0.00  0.00    +0.000 N 
ATOM     58  H   THR C   9     127.232 174.510 169.004  0.00  0.00    +0.000 HD
ATOM     59  CA  THR C   9     126.865 175.764 167.319  0.00  0.00    +0.000 C 
ATOM     60  C   THR C   9     125.523 176.444 167.085  0.00  0.00    +0.000 C 
ATOM     61  O   THR C   9     125.431 177.419 166.330  0.00  0.00    +0.000 OA
ATOM     62  CB  THR C   9     126.960 174.480 166.498  0.00  0.00    +0.000 C 
ATOM     63  OG1 THR C   9     126.393 173.396 167.242  0.00  0.00    +0.000 OA
ATOM     64  HG1 THR C   9     126.817 172.580 166.938  0.00  0.00    +0.000 HD
ATOM     65  CG2 THR C   9     128.407 174.162 166.185  0.00  0.00    +0.000 C 
ATOM     66  N   GLU C  10     124.465 175.940 167.723  0.00  0.00    +0.000 N 
ATOM     67  H   GLU C  10     124.569 175.074 168.231  0.00  0.00    +0.000 HD
ATOM     68  CA  GLU C  10     123.143 176.524 167.529  0.00  0.00    +0.000 C 
ATOM     69  C   GLU C  10     123.100 177.962 168.026  0.00  0.00    +0.000 C 
ATOM     70  O   GLU C  10     122.538 178.841 167.364  0.00  0.00    +0.000 OA
ATOM     71  CB  GLU C  10     122.082 175.682 168.235  0.00  0.00    +0.000 C 
ATOM     72  CG  GLU C  10     120.663 176.172 167.989  0.00  0.00    +0.000 C 
ATOM     73  CD  GLU C  10     119.767 176.006 169.199  0.00  0.00    +0.000 C 
ATOM     74  OE1 GLU C  10     119.436 174.854 169.542  0.00  0.00    +0.000 OA
ATOM     75  OE2 GLU C  10     119.392 177.029 169.808  0.00  0.00    +0.000 OA
ATOM     76  N   ARG C  11     123.686 178.222 169.196  0.00  0.00    +0.000 N 
ATOM     77  H   ARG C  11     124.152 177.472 169.691  0.00  0.00    +0.000 HD
ATOM     78  CA  ARG C  11     123.689 179.582 169.723  0.00  0.00    +0.000 C 
ATOM     79  C   ARG C  11     124.533 180.509 168.858  0.00  0.00    +0.000 C 
ATOM     80  O   ARG C  11     124.163 181.668 168.640  0.00  0.00    +0.000 OA
ATOM     81  CB  ARG C  11     124.184 179.592 171.167  0.00  0.00    +0.000 C 
ATOM     82  CG  ARG C  11     123.321 178.780 172.111  0.00  0.00    +0.000 C 
ATOM     83  CD  ARG C  11     123.037 179.547 173.391  0.00  0.00    +0.000 C 
ATOM     84  NE  ARG C  11     121.879 180.422 173.254  0.00  0.00    +0.000 N 
ATOM     85  HE  ARG C  11     120.996 180.090 173.571  0.00  0.00    +0.000 HD
ATOM     86  CZ  ARG C  11     121.945 181.709 172.941  0.00  0.00    +0.000 C 
ATOM     87  NH1 ARG C  11     123.104 182.309 172.731  0.00  0.00    +0.000 N 
ATOM     88 HH11 ARG C  11     123.885 181.921 173.263  0.00  0.00    +0.000 HD
ATOM     89 HH12 ARG C  11     123.155 183.297 172.532  0.00  0.00    +0.000 HD
ATOM     90  NH2 ARG C  11     120.820 182.410 172.837  0.00  0.00    +0.000 N 
ATOM     91 HH21 ARG C  11     119.930 181.953 172.849  0.00  0.00    +0.000 HD
ATOM     92 HH22 ARG C  11     120.878 183.392 172.637  0.00  0.00    +0.000 HD
ATOM     93  N   NME C  12     125.669 180.019 168.358  0.00  0.00    +0.000 N 
ATOM     94  H   NME C  12     125.919 179.055 168.540  0.00  0.00    +0.000 HD
ATOM     95  C   NME C  12     126.489 180.819 167.455  0.00  0.00    +0.000 C 
TER 
REMARK  Name = /home/xianyang/aimnet2_score_pipelines/work/L1234-fixed-receptor-eint-20260921/L3/Q00961/prepared.pdb
REMARK                            x       y       z     vdW  Elec       q    Type
REMARK                         _______ _______ _______ _____ _____    ______ ____
ATOM      1  CH3 ACE D   1     125.731 168.946 158.475  0.00  0.00    +0.000 C 
ATOM      2  C   ACE D   1     126.689 169.924 159.140  0.00  0.00    +0.000 C 
ATOM      3  O   ACE D   1     127.896 169.878 158.893  0.00  0.00    +0.000 OA
ATOM      4  N   ILE D   2     126.153 170.803 159.983  0.00  0.00    +0.000 N 
ATOM      5  H   ILE D   2     125.161 170.739 160.174  0.00  0.00    +0.000 HD
ATOM      6  CA  ILE D   2     126.929 171.833 160.667  0.00  0.00    +0.000 C 
ATOM      7  C   ILE D   2     127.143 171.376 162.102  0.00  0.00    +0.000 C 
ATOM      8  O   ILE D   2     126.175 171.227 162.856  0.00  0.00    +0.000 OA
ATOM      9  CB  ILE D   2     126.214 173.191 160.635  0.00  0.00    +0.000 C 
ATOM     10  CG1 ILE D   2     126.127 173.729 159.208  0.00  0.00    +0.000 C 
ATOM     11  CG2 ILE D   2     126.925 174.184 161.532  0.00  0.00    +0.000 C 
ATOM     12  CD1 ILE D   2     127.368 173.508 158.402  0.00  0.00    +0.000 C 
ATOM     13  N   TYR D   3     128.396 171.160 162.495  0.00  0.00    +0.000 N 
ATOM     14  H   TYR D   3     129.182 171.325 161.883  0.00  0.00    +0.000 HD
ATOM     15  CA  TYR D   3     128.633 170.633 163.839  0.00  0.00    +0.000 C 
ATOM     16  C   TYR D   3     130.057 170.970 164.269  0.00  0.00    +0.000 C 
ATOM     17  O   TYR D   3     130.697 171.863 163.707  0.00  0.00    +0.000 OA
ATOM     18  CB  TYR D   3     128.340 169.131 163.891  0.00  0.00    +0.000 C 
ATOM     19  CG  TYR D   3     128.018 168.627 165.279  0.00  0.00    +0.000 A 
ATOM     20  CD1 TYR D   3     127.015 169.212 166.036  0.00  0.00    +0.000 A 
ATOM     21  CD2 TYR D   3     128.713 167.564 165.827  0.00  0.00    +0.000 A 
ATOM     22  CE1 TYR D   3     126.722 168.753 167.305  0.00  0.00    +0.000 A 
ATOM     23  CE2 TYR D   3     128.430 167.099 167.090  0.00  0.00    +0.000 A 
ATOM     24  CZ  TYR D   3     127.435 167.695 167.825  0.00  0.00    +0.000 A 
ATOM     25  OH  TYR D   3     127.152 167.229 169.087  0.00  0.00    +0.000 OA
ATOM     26  HH  TYR D   3     127.855 166.661 169.407  0.00  0.00    +0.000 HD
ATOM     27  N   ASP D   4     130.537 170.289 165.308  0.00  0.00    +0.000 N 
ATOM     28  H   ASP D   4     129.957 169.612 165.779  0.00  0.00    +0.000 HD
ATOM     29  CA  ASP D   4     131.860 170.572 165.851  0.00  0.00    +0.000 C 
ATOM     30  C   ASP D   4     132.953 169.968 164.985  0.00  0.00    +0.000 C 
ATOM     31  O   ASP D   4     132.845 168.824 164.538  0.00  0.00    +0.000 OA
ATOM     32  CB  ASP D   4     131.984 170.034 167.270  0.00  0.00    +0.000 C 
ATOM     33  CG  ASP D   4     131.311 170.916 168.283  0.00  0.00    +0.000 C 
ATOM     34  OD1 ASP D   4     130.597 171.858 167.880  0.00  0.00    +0.000 OA
ATOM     35  OD2 ASP D   4     131.498 170.659 169.487  0.00  0.00    +0.000 OA
ATOM     36  N   ALA D   5     134.028 170.730 164.785  0.00  0.00    +0.000 N 
ATOM     37  H   ALA D   5     134.033 171.673 165.138  0.00  0.00    +0.000 HD
ATOM     38  CA  ALA D   5     135.115 170.281 163.925  0.00  0.00    +0.000 C 
ATOM     39  C   ALA D   5     135.863 169.090 164.510  0.00  0.00    +0.000 C 
ATOM     40  O   ALA D   5     136.252 168.186 163.763  0.00  0.00    +0.000 OA
ATOM     41  CB  ALA D   5     136.085 171.429 163.663  0.00  0.00    +0.000 C 
ATOM     42  N   NME D   6     136.087 169.071 165.827  0.00  0.00    +0.000 N 
ATOM     43  H   NME D   6     135.697 169.796 166.407  0.00  0.00    +0.000 HD
ATOM     44  C   NME D   6     136.859 167.984 166.423  0.00  0.00    +0.000 C 
TER 
REMARK  Name = /home/xianyang/aimnet2_score_pipelines/work/L1234-fixed-receptor-eint-20260921/L3/Q00961/prepared.pdb
REMARK                            x       y       z     vdW  Elec       q    Type
REMARK                         _______ _______ _______ _____ _____    ______ ____
ATOM      1  CH3 ACE E   1     137.740 177.722 169.844  0.00  0.00    +0.000 C 
ATOM      2  C   ACE E   1     138.391 176.412 170.271  0.00  0.00    +0.000 C 
ATOM      3  O   ACE E   1     139.023 175.717 169.469  0.00  0.00    +0.000 OA
ATOM      4  N   GLY E   2     138.253 176.053 171.544  0.00  0.00    +0.000 N 
ATOM      5  H   GLY E   2     137.705 176.615 172.176  0.00  0.00    +0.000 HD
ATOM      6  CA  GLY E   2     138.836 174.813 172.013  0.00  0.00    +0.000 C 
ATOM      7  C   GLY E   2     137.979 174.158 173.072  0.00  0.00    +0.000 C 
ATOM      8  O   GLY E   2     137.025 174.743 173.585  0.00  0.00    +0.000 OA
ATOM      9  N   TYR E   3     138.333 172.917 173.386  0.00  0.00    +0.000 N 
ATOM     10  H   TYR E   3     139.140 172.501 172.948  0.00  0.00    +0.000 HD
ATOM     11  CA  TYR E   3     137.705 172.206 174.487  0.00  0.00    +0.000 C 
ATOM     12  C   TYR E   3     138.401 172.561 175.791  0.00  0.00    +0.000 C 
ATOM     13  O   TYR E   3     139.630 172.533 175.881  0.00  0.00    +0.000 OA
ATOM     14  CB  TYR E   3     137.768 170.697 174.263  0.00  0.00    +0.000 C 
ATOM     15  CG  TYR E   3     136.812 170.176 173.219  0.00  0.00    +0.000 A 
ATOM     16  CD1 TYR E   3     135.831 170.987 172.678  0.00  0.00    +0.000 A 
ATOM     17  CD2 TYR E   3     136.891 168.867 172.776  0.00  0.00    +0.000 A 
ATOM     18  CE1 TYR E   3     134.957 170.509 171.725  0.00  0.00    +0.000 A 
ATOM     19  CE2 TYR E   3     136.021 168.384 171.824  0.00  0.00    +0.000 A 
ATOM     20  CZ  TYR E   3     135.057 169.209 171.304  0.00  0.00    +0.000 A 
ATOM     21  OH  TYR E   3     134.187 168.732 170.355  0.00  0.00    +0.000 OA
ATOM     22  HH  TYR E   3     133.438 169.324 170.196  0.00  0.00    +0.000 HD
ATOM     23  N   GLY E   4     137.609 172.892 176.810  0.00  0.00    +0.000 N 
ATOM     24  H   GLY E   4     136.603 172.822 176.701  0.00  0.00    +0.000 HD
ATOM     25  CA  GLY E   4     138.159 173.308 178.080  0.00  0.00    +0.000 C 
ATOM     26  C   GLY E   4     137.564 172.512 179.223  0.00  0.00    +0.000 C 
ATOM     27  O   GLY E   4     136.595 171.771 179.055  0.00  0.00    +0.000 OA
ATOM     28  N   NME E   5     138.170 172.679 180.391  0.00  0.00    +0.000 N 
ATOM     29  H   NME E   5     138.974 173.286 180.433  0.00  0.00    +0.000 HD
ATOM     30  C   NME E   5     137.709 172.048 181.619  0.00  0.00    +0.000 C 
TER 
