REMARK  Name = /data/user_data/xianyang/t3-aimnet-affinity-balanced/L1/Q86X55/pocket.pdb
REMARK                            x       y       z     vdW  Elec       q    Type
REMARK                         _______ _______ _______ _____ _____    ______ ____
ATOM      1  N   PHE A   1      -3.284  21.461  32.516  0.00  0.00    +0.000 N 
ATOM      2  CA  PHE A   1      -3.591  20.150  31.968  0.00  0.00    +0.000 C 
ATOM      3  C   PHE A   1      -2.987  19.124  32.888  0.00  0.00    +0.000 C 
ATOM      4  O   PHE A   1      -1.987  18.489  32.564  0.00  0.00    +0.000 OA
ATOM      5  CB  PHE A   1      -3.029  19.985  30.551  0.00  0.00    +0.000 C 
ATOM      6  CG  PHE A   1      -3.569  20.977  29.564  0.00  0.00    +0.000 A 
ATOM      7  CD1 PHE A   1      -4.848  20.819  29.018  0.00  0.00    +0.000 A 
ATOM      8  CD2 PHE A   1      -2.810  22.081  29.184  0.00  0.00    +0.000 A 
ATOM      9  CE1 PHE A   1      -5.350  21.740  28.091  0.00  0.00    +0.000 A 
ATOM     10  CE2 PHE A   1      -3.302  22.998  28.254  0.00  0.00    +0.000 A 
ATOM     11  CZ  PHE A   1      -4.569  22.830  27.709  0.00  0.00    +0.000 A 
ATOM     12  H   PHE A   1      -3.681  22.183  31.914  0.00  0.00    +0.000 HD
ATOM     13  H   PHE A   1      -2.272  21.580  32.568  0.00  0.00    +0.000 HD
ATOM     14  H   PHE A   1      -3.684  21.541  33.451  0.00  0.00    +0.000 HD
TER 
REMARK  Name = /data/user_data/xianyang/t3-aimnet-affinity-balanced/L1/Q86X55/pocket.pdb
REMARK                            x       y       z     vdW  Elec       q    Type
REMARK                         _______ _______ _______ _____ _____    ______ ____
ATOM      1  N   THR B   1      -1.845  15.107  32.308  0.00  0.00    +0.000 N 
ATOM      2  CA  THR B   1      -0.573  14.741  31.637  0.00  0.00    +0.000 C 
ATOM      3  C   THR B   1       0.548  14.363  32.609  0.00  0.00    +0.000 C 
ATOM      4  O   THR B   1       0.395  14.510  33.830  0.00  0.00    +0.000 OA
ATOM      5  CB  THR B   1      -0.063  15.881  30.733  0.00  0.00    +0.000 C 
ATOM      6  OG1 THR B   1       0.304  17.016  31.524  0.00  0.00    +0.000 OA
ATOM      7  CG2 THR B   1      -1.142  16.313  29.778  0.00  0.00    +0.000 C 
ATOM      8  H   THR B   1      -2.544  15.346  31.605  0.00  0.00    +0.000 HD
ATOM      9  H   THR B   1      -1.689  15.909  32.919  0.00  0.00    +0.000 HD
ATOM     10  H   THR B   1      -2.177  14.317  32.862  0.00  0.00    +0.000 HD
ATOM     11  H   THR B   1      -0.473  17.337  32.008  0.00  0.00    +0.000 HD
TER 
REMARK  Name = /data/user_data/xianyang/t3-aimnet-affinity-balanced/L1/Q86X55/pocket.pdb
REMARK                            x       y       z     vdW  Elec       q    Type
REMARK                         _______ _______ _______ _____ _____    ______ ____
ATOM      1  N   TYR C   1       4.590  34.332  21.689  0.00  0.00    +0.000 N 
ATOM      2  CA  TYR C   1       5.911  34.244  22.296  0.00  0.00    +0.000 C 
ATOM      3  C   TYR C   1       5.955  35.075  23.592  0.00  0.00    +0.000 C 
ATOM      4  O   TYR C   1       6.376  34.607  24.633  0.00  0.00    +0.000 OA
ATOM      5  CB  TYR C   1       6.941  34.760  21.291  0.00  0.00    +0.000 C 
ATOM      6  CG  TYR C   1       8.383  34.707  21.767  0.00  0.00    +0.000 A 
ATOM      7  CD1 TYR C   1       9.129  33.532  21.650  0.00  0.00    +0.000 A 
ATOM      8  CD2 TYR C   1       9.000  35.850  22.332  0.00  0.00    +0.000 A 
ATOM      9  CE1 TYR C   1      10.444  33.480  22.079  0.00  0.00    +0.000 A 
ATOM     10  CE2 TYR C   1      10.312  35.804  22.780  0.00  0.00    +0.000 A 
ATOM     11  CZ  TYR C   1      11.044  34.643  22.617  0.00  0.00    +0.000 A 
ATOM     12  OH  TYR C   1      12.352  34.600  23.058  0.00  0.00    +0.000 OA
ATOM     13  H   TYR C   1       4.572  33.779  20.832  0.00  0.00    +0.000 HD
ATOM     14  H   TYR C   1       4.381  35.306  21.469  0.00  0.00    +0.000 HD
ATOM     15  H   TYR C   1       3.892  33.973  22.340  0.00  0.00    +0.000 HD
ATOM     16  H   TYR C   1      12.857  33.818  22.952  0.00  0.00    +0.000 HD
TER 
REMARK  Name = /data/user_data/xianyang/t3-aimnet-affinity-balanced/L1/Q86X55/pocket.pdb
REMARK                            x       y       z     vdW  Elec       q    Type
REMARK                         _______ _______ _______ _____ _____    ______ ____
ATOM      1  N   PHE D   1       3.783  33.736  26.427  0.00  0.00    +0.000 N 
ATOM      2  CA  PHE D   1       4.420  32.590  27.082  0.00  0.00    +0.000 C 
ATOM      3  C   PHE D   1       5.369  33.050  28.207  0.00  0.00    +0.000 C 
ATOM      4  O   PHE D   1       5.401  32.465  29.289  0.00  0.00    +0.000 OA
ATOM      5  CB  PHE D   1       5.174  31.777  26.033  0.00  0.00    +0.000 C 
ATOM      6  CG  PHE D   1       5.981  30.644  26.573  0.00  0.00    +0.000 A 
ATOM      7  CD2 PHE D   1       5.397  29.391  26.793  0.00  0.00    +0.000 A 
ATOM      8  CD1 PHE D   1       7.341  30.778  26.769  0.00  0.00    +0.000 A 
ATOM      9  CE2 PHE D   1       6.163  28.321  27.249  0.00  0.00    +0.000 A 
ATOM     10  CE1 PHE D   1       8.119  29.701  27.195  0.00  0.00    +0.000 A 
ATOM     11  CZ  PHE D   1       7.518  28.471  27.447  0.00  0.00    +0.000 A 
ATOM     12  N   TYR D   2       6.126  34.106  27.954  0.00  0.00    +0.000 N 
ATOM     13  CA  TYR D   2       7.065  34.607  28.956  0.00  0.00    +0.000 C 
ATOM     14  C   TYR D   2       6.425  35.522  29.993  0.00  0.00    +0.000 C 
ATOM     15  O   TYR D   2       7.040  35.825  31.035  0.00  0.00    +0.000 OA
ATOM     16  CB  TYR D   2       8.261  35.291  28.277  0.00  0.00    +0.000 C 
ATOM     17  CG  TYR D   2       9.272  34.304  27.717  0.00  0.00    +0.000 A 
ATOM     18  CD2 TYR D   2       9.985  33.446  28.570  0.00  0.00    +0.000 A 
ATOM     19  CD1 TYR D   2       9.518  34.242  26.329  0.00  0.00    +0.000 A 
ATOM     20  CE2 TYR D   2      10.892  32.541  28.064  0.00  0.00    +0.000 A 
ATOM     21  CE1 TYR D   2      10.421  33.339  25.812  0.00  0.00    +0.000 A 
ATOM     22  CZ  TYR D   2      11.109  32.508  26.678  0.00  0.00    +0.000 A 
ATOM     23  OH  TYR D   2      12.036  31.640  26.183  0.00  0.00    +0.000 OA
ATOM     24  H   PHE D   1       3.162  33.404  25.689  0.00  0.00    +0.000 HD
ATOM     25  H   PHE D   1       4.500  34.338  26.023  0.00  0.00    +0.000 HD
ATOM     26  H   PHE D   1       3.243  34.263  27.113  0.00  0.00    +0.000 HD
ATOM     27  H   TYR D   2       6.056  34.558  27.082  0.00  0.00    +0.000 HD
ATOM     28  H   TYR D   2      12.197  31.602  25.261  0.00  0.00    +0.000 HD
TER 
REMARK  Name = /data/user_data/xianyang/t3-aimnet-affinity-balanced/L1/Q86X55/pocket.pdb
REMARK                            x       y       z     vdW  Elec       q    Type
REMARK                         _______ _______ _______ _____ _____    ______ ____
ATOM      1  N   GLN E   1       6.363  30.327  33.986  0.00  0.00    +0.000 N 
ATOM      2  CA  GLN E   1       7.418  30.103  32.998  0.00  0.00    +0.000 C 
ATOM      3  C   GLN E   1       8.775  30.672  33.476  0.00  0.00    +0.000 C 
ATOM      4  O   GLN E   1       9.810  29.991  33.368  0.00  0.00    +0.000 OA
ATOM      5  CB  GLN E   1       7.028  30.676  31.640  0.00  0.00    +0.000 C 
ATOM      6  CG  GLN E   1       8.139  30.594  30.592  0.00  0.00    +0.000 C 
ATOM      7  CD  GLN E   1       8.813  29.219  30.491  0.00  0.00    +0.000 C 
ATOM      8  OE1 GLN E   1      10.022  29.139  30.219  0.00  0.00    +0.000 OA
ATOM      9  NE2 GLN E   1       8.051  28.140  30.704  0.00  0.00    +0.000 N 
ATOM     10  H   GLN E   1       5.485  29.941  33.639  0.00  0.00    +0.000 HD
ATOM     11  H   GLN E   1       6.254  31.328  34.146  0.00  0.00    +0.000 HD
ATOM     12  H   GLN E   1       6.614  29.868  34.862  0.00  0.00    +0.000 HD
ATOM     13  H   GLN E   1       8.446  27.240  30.648  0.00  0.00    +0.000 HD
ATOM     14  H   GLN E   1       7.096  28.246  30.916  0.00  0.00    +0.000 HD
TER 
REMARK  Name = /data/user_data/xianyang/t3-aimnet-affinity-balanced/L1/Q86X55/pocket.pdb
REMARK                            x       y       z     vdW  Elec       q    Type
REMARK                         _______ _______ _______ _____ _____    ______ ____
ATOM      1  N   ASN F   1       9.996  28.280  35.875  0.00  0.00    +0.000 N 
ATOM      2  CA  ASN F   1      10.613  27.086  35.249  0.00  0.00    +0.000 C 
ATOM      3  C   ASN F   1      12.106  27.303  34.993  0.00  0.00    +0.000 C 
ATOM      4  O   ASN F   1      12.940  26.451  35.308  0.00  0.00    +0.000 OA
ATOM      5  CB  ASN F   1       9.886  26.694  33.946  0.00  0.00    +0.000 C 
ATOM      6  CG  ASN F   1      10.511  25.470  33.267  0.00  0.00    +0.000 C 
ATOM      7  OD1 ASN F   1      10.272  24.333  33.665  0.00  0.00    +0.000 OA
ATOM      8  ND2 ASN F   1      11.330  25.704  32.263  0.00  0.00    +0.000 N 
ATOM      9  N   MET F   2      12.448  28.458  34.424  0.00  0.00    +0.000 N 
ATOM     10  CA  MET F   2      13.844  28.750  34.111  0.00  0.00    +0.000 C 
ATOM     11  C   MET F   2      14.657  29.014  35.393  0.00  0.00    +0.000 C 
ATOM     12  O   MET F   2      15.768  28.502  35.564  0.00  0.00    +0.000 OA
ATOM     13  CB  MET F   2      13.920  29.933  33.138  0.00  0.00    +0.000 C 
ATOM     14  CG  MET F   2      13.221  29.679  31.792  0.00  0.00    +0.000 C 
ATOM     15  SD  MET F   2      13.207  31.138  30.721  0.00  0.00    +0.000 S 
ATOM     16  CE  MET F   2      12.043  32.159  31.629  0.00  0.00    +0.000 C 
ATOM     17  H   ASN F   1       9.003  28.106  36.033  0.00  0.00    +0.000 HD
ATOM     18  H   ASN F   1      10.106  29.083  35.256  0.00  0.00    +0.000 HD
ATOM     19  H   ASN F   1      10.454  28.472  36.766  0.00  0.00    +0.000 HD
ATOM     20  H   ASN F   1      11.758  24.953  31.792  0.00  0.00    +0.000 HD
ATOM     21  H   ASN F   1      11.514  26.630  31.983  0.00  0.00    +0.000 HD
ATOM     22  H   MET F   2      11.752  29.122  34.212  0.00  0.00    +0.000 HD
TER 
REMARK  Name = /data/user_data/xianyang/t3-aimnet-affinity-balanced/L1/Q86X55/pocket.pdb
REMARK                            x       y       z     vdW  Elec       q    Type
REMARK                         _______ _______ _______ _____ _____    ______ ____
ATOM      1  N   ARG G   1      21.439  25.990  35.391  0.00  0.00    +0.000 N 
ATOM      2  CA  ARG G   1      21.381  27.255  34.632  0.00  0.00    +0.000 C 
ATOM      3  C   ARG G   1      21.576  28.468  35.543  0.00  0.00    +0.000 C 
ATOM      4  O   ARG G   1      22.505  29.246  35.362  0.00  0.00    +0.000 OA
ATOM      5  CB  ARG G   1      20.052  27.403  33.897  0.00  0.00    +0.000 C 
ATOM      6  CG  ARG G   1      19.927  28.637  33.006  0.00  0.00    +0.000 C 
ATOM      7  CD  ARG G   1      18.472  28.922  32.692  0.00  0.00    +0.000 C 
ATOM      8  NE  ARG G   1      17.849  29.664  33.782  0.00  0.00    +0.000 N 
ATOM      9  CZ  ARG G   1      17.482  30.940  33.716  0.00  0.00    +0.000 C 
ATOM     10  NH1 ARG G   1      17.605  31.617  32.574  0.00  0.00    +0.000 N 
ATOM     11  NH2 ARG G   1      16.962  31.534  34.785  0.00  0.00    +0.000 N 
ATOM     12  H   ARG G   1      21.306  25.205  34.754  0.00  0.00    +0.000 HD
ATOM     13  H   ARG G   1      20.703  25.983  36.098  0.00  0.00    +0.000 HD
ATOM     14  H   ARG G   1      22.348  25.908  35.846  0.00  0.00    +0.000 HD
ATOM     15  H   ARG G   1      17.689  29.186  34.627  0.00  0.00    +0.000 HD
ATOM     16  H   ARG G   1      17.990  31.179  31.781  0.00  0.00    +0.000 HD
ATOM     17  H   ARG G   1      17.311  32.555  32.524  0.00  0.00    +0.000 HD
ATOM     18  H   ARG G   1      16.689  32.479  34.739  0.00  0.00    +0.000 HD
ATOM     19  H   ARG G   1      16.850  31.029  35.623  0.00  0.00    +0.000 HD
TER 
REMARK  Name = /data/user_data/xianyang/t3-aimnet-affinity-balanced/L1/Q86X55/pocket.pdb
REMARK                            x       y       z     vdW  Elec       q    Type
REMARK                         _______ _______ _______ _____ _____    ______ ____
ATOM      1  N   GLU H   1      20.207  35.511  28.853  0.00  0.00    +0.000 N 
ATOM      2  CA  GLU H   1      19.999  34.096  28.612  0.00  0.00    +0.000 C 
ATOM      3  C   GLU H   1      19.048  34.018  27.422  0.00  0.00    +0.000 C 
ATOM      4  O   GLU H   1      17.837  34.112  27.593  0.00  0.00    +0.000 OA
ATOM      5  CB  GLU H   1      19.442  33.394  29.867  0.00  0.00    +0.000 C 
ATOM      6  CG  GLU H   1      19.575  31.883  29.816  0.00  0.00    +0.000 C 
ATOM      7  CD  GLU H   1      18.368  31.195  29.185  0.00  0.00    +0.000 C 
ATOM      8  OE2 GLU H   1      17.483  30.755  29.965  0.00  0.00    +0.000 OA
ATOM      9  OE1 GLU H   1      18.279  31.136  27.911  0.00  0.00    +0.000 OA
ATOM     10  N   PRO H   2      19.604  33.974  26.205  0.00  0.00    +0.000 N 
ATOM     11  CA  PRO H   2      18.796  34.026  24.989  0.00  0.00    +0.000 C 
ATOM     12  C   PRO H   2      18.698  32.662  24.286  0.00  0.00    +0.000 C 
ATOM     13  O   PRO H   2      18.248  32.602  23.142  0.00  0.00    +0.000 OA
ATOM     14  CB  PRO H   2      19.625  34.958  24.102  0.00  0.00    +0.000 C 
ATOM     15  CG  PRO H   2      21.050  34.592  24.461  0.00  0.00    +0.000 C 
ATOM     16  CD  PRO H   2      21.009  34.355  25.942  0.00  0.00    +0.000 C 
ATOM     17  N   MET H   3      19.143  31.597  24.944  0.00  0.00    +0.000 N 
ATOM     18  CA  MET H   3      19.262  30.287  24.308  0.00  0.00    +0.000 C 
ATOM     19  C   MET H   3      17.921  29.553  24.232  0.00  0.00    +0.000 C 
ATOM     20  O   MET H   3      17.269  29.372  25.240  0.00  0.00    +0.000 OA
ATOM     21  CB  MET H   3      20.301  29.423  25.023  0.00  0.00    +0.000 C 
ATOM     22  CG  MET H   3      21.733  29.983  24.979  0.00  0.00    +0.000 C 
ATOM     23  SD  MET H   3      22.158  31.016  26.418  0.00  0.00    +0.000 S 
ATOM     24  CE  MET H   3      22.425  29.783  27.685  0.00  0.00    +0.000 C 
ATOM     25  N   GLY H   4      17.510  29.144  23.024  0.00  0.00    +0.000 N 
ATOM     26  CA  GLY H   4      16.349  28.240  22.882  0.00  0.00    +0.000 C 
ATOM     27  C   GLY H   4      16.772  26.778  22.946  0.00  0.00    +0.000 C 
ATOM     28  O   GLY H   4      17.968  26.469  22.984  0.00  0.00    +0.000 OA
ATOM     29  N   TYR H   5      15.808  25.850  22.949  0.00  0.00    +0.000 N 
ATOM     30  CA  TYR H   5      16.165  24.447  22.679  0.00  0.00    +0.000 C 
ATOM     31  C   TYR H   5      16.890  24.376  21.321  0.00  0.00    +0.000 C 
ATOM     32  O   TYR H   5      16.618  25.175  20.425  0.00  0.00    +0.000 OA
ATOM     33  CB  TYR H   5      14.954  23.482  22.789  0.00  0.00    +0.000 C 
ATOM     34  CG  TYR H   5      13.760  23.804  21.914  0.00  0.00    +0.000 A 
ATOM     35  CD1 TYR H   5      13.774  23.487  20.550  0.00  0.00    +0.000 A 
ATOM     36  CD2 TYR H   5      12.607  24.399  22.450  0.00  0.00    +0.000 A 
ATOM     37  CE1 TYR H   5      12.682  23.806  19.743  0.00  0.00    +0.000 A 
ATOM     38  CE2 TYR H   5      11.503  24.702  21.657  0.00  0.00    +0.000 A 
ATOM     39  CZ  TYR H   5      11.564  24.391  20.303  0.00  0.00    +0.000 A 
ATOM     40  OH  TYR H   5      10.535  24.681  19.475  0.00  0.00    +0.000 OA
ATOM     41  H   GLU H   1      20.575  35.949  28.009  0.00  0.00    +0.000 HD
ATOM     42  H   GLU H   1      20.873  35.632  29.616  0.00  0.00    +0.000 HD
ATOM     43  H   GLU H   1      19.320  35.947  29.104  0.00  0.00    +0.000 HD
ATOM     44  H   MET H   3      19.401  31.694  25.889  0.00  0.00    +0.000 HD
ATOM     45  H   GLY H   4      17.988  29.450  22.220  0.00  0.00    +0.000 HD
ATOM     46  H   TYR H   5      14.873  26.102  23.129  0.00  0.00    +0.000 HD
ATOM     47  H   TYR H   5      10.591  24.465  18.565  0.00  0.00    +0.000 HD
TER 
REMARK  Name = /data/user_data/xianyang/t3-aimnet-affinity-balanced/L1/Q86X55/pocket.pdb
REMARK                            x       y       z     vdW  Elec       q    Type
REMARK                         _______ _______ _______ _____ _____    ______ ____
ATOM      1  N   ASN I   1      16.472  27.947  18.546  0.00  0.00    +0.000 N 
ATOM      2  CA  ASN I   1      15.046  28.223  18.576  0.00  0.00    +0.000 C 
ATOM      3  C   ASN I   1      14.818  29.557  19.279  0.00  0.00    +0.000 C 
ATOM      4  O   ASN I   1      15.603  29.899  20.161  0.00  0.00    +0.000 OA
ATOM      5  CB  ASN I   1      14.265  27.132  19.316  0.00  0.00    +0.000 C 
ATOM      6  CG  ASN I   1      12.778  27.360  19.223  0.00  0.00    +0.000 C 
ATOM      7  OD1 ASN I   1      12.096  27.546  20.240  0.00  0.00    +0.000 OA
ATOM      8  ND2 ASN I   1      12.280  27.442  18.018  0.00  0.00    +0.000 N 
ATOM      9  N   GLU I   2      13.773  30.291  18.878  0.00  0.00    +0.000 N 
ATOM     10  CA  GLU I   2      13.361  31.605  19.432  0.00  0.00    +0.000 C 
ATOM     11  C   GLU I   2      13.930  32.822  18.668  0.00  0.00    +0.000 C 
ATOM     12  O   GLU I   2      13.294  33.872  18.653  0.00  0.00    +0.000 OA
ATOM     13  CB  GLU I   2      13.602  31.795  20.955  0.00  0.00    +0.000 C 
ATOM     14  CG  GLU I   2      13.109  30.660  21.869  0.00  0.00    +0.000 C 
ATOM     15  CD  GLU I   2      13.266  30.970  23.352  0.00  0.00    +0.000 C 
ATOM     16  OE1 GLU I   2      12.909  32.099  23.800  0.00  0.00    +0.000 OA
ATOM     17  OE2 GLU I   2      13.702  30.066  24.105  0.00  0.00    +0.000 OA
ATOM     18  H   ASN I   1      16.953  28.695  18.046  0.00  0.00    +0.000 HD
ATOM     19  H   ASN I   1      16.637  27.060  18.071  0.00  0.00    +0.000 HD
ATOM     20  H   ASN I   1      16.828  27.893  19.500  0.00  0.00    +0.000 HD
ATOM     21  H   ASN I   1      12.857  27.287  17.235  0.00  0.00    +0.000 HD
ATOM     22  H   ASN I   1      11.328  27.659  17.893  0.00  0.00    +0.000 HD
ATOM     23  H   GLU I   2      13.226  29.925  18.146  0.00  0.00    +0.000 HD
TER 
REMARK  Name = /data/user_data/xianyang/t3-aimnet-affinity-balanced/L1/Q86X55/pocket.pdb
REMARK                            x       y       z     vdW  Elec       q    Type
REMARK                         _______ _______ _______ _____ _____    ______ ____
ATOM      1  N   MET J   1      16.153  34.606  19.616  0.00  0.00    +0.000 N 
ATOM      2  CA  MET J   1      16.559  35.597  20.598  0.00  0.00    +0.000 C 
ATOM      3  C   MET J   1      18.085  35.842  20.574  0.00  0.00    +0.000 C 
ATOM      4  O   MET J   1      18.556  36.925  20.973  0.00  0.00    +0.000 OA
ATOM      5  CB  MET J   1      16.126  35.192  22.007  0.00  0.00    +0.000 C 
ATOM      6  CG  MET J   1      16.251  36.342  22.986  0.00  0.00    +0.000 C 
ATOM      7  SD  MET J   1      15.716  35.943  24.654  0.00  0.00    +0.000 S 
ATOM      8  CE  MET J   1      16.337  37.398  25.540  0.00  0.00    +0.000 C 
ATOM      9  H   MET J   1      16.455  34.903  18.688  0.00  0.00    +0.000 HD
ATOM     10  H   MET J   1      15.138  34.511  19.629  0.00  0.00    +0.000 HD
ATOM     11  H   MET J   1      16.581  33.708  19.842  0.00  0.00    +0.000 HD
TER 
REMARK  Name = /data/user_data/xianyang/t3-aimnet-affinity-balanced/L1/Q86X55/pocket.pdb
REMARK                            x       y       z     vdW  Elec       q    Type
REMARK                         _______ _______ _______ _____ _____    ______ ____
ATOM      1  N   VAL K   1      12.456  16.741  21.403  0.00  0.00    +0.000 N 
ATOM      2  CA  VAL K   1      13.082  17.356  22.587  0.00  0.00    +0.000 C 
ATOM      3  C   VAL K   1      12.980  16.411  23.760  0.00  0.00    +0.000 C 
ATOM      4  O   VAL K   1      11.887  16.185  24.312  0.00  0.00    +0.000 OA
ATOM      5  CB  VAL K   1      12.455  18.726  22.944  0.00  0.00    +0.000 C 
ATOM      6  CG2 VAL K   1      13.137  19.374  24.155  0.00  0.00    +0.000 C 
ATOM      7  CG1 VAL K   1      12.513  19.665  21.751  0.00  0.00    +0.000 C 
ATOM      8  H   VAL K   1      12.525  17.380  20.611  0.00  0.00    +0.000 HD
ATOM      9  H   VAL K   1      11.474  16.548  21.599  0.00  0.00    +0.000 HD
ATOM     10  H   VAL K   1      12.936  15.869  21.179  0.00  0.00    +0.000 HD
TER 
REMARK  Name = /data/user_data/xianyang/t3-aimnet-affinity-balanced/L1/Q86X55/pocket.pdb
REMARK                            x       y       z     vdW  Elec       q    Type
REMARK                         _______ _______ _______ _____ _____    ______ ____
ATOM      1  N   HIS L   1      16.769  22.186  31.792  0.00  0.00    +0.000 N 
ATOM      2  CA  HIS L   1      15.440  22.347  31.221  0.00  0.00    +0.000 C 
ATOM      3  C   HIS L   1      15.483  22.410  29.692  0.00  0.00    +0.000 C 
ATOM      4  O   HIS L   1      14.443  22.401  29.074  0.00  0.00    +0.000 OA
ATOM      5  CB  HIS L   1      14.717  23.580  31.775  0.00  0.00    +0.000 C 
ATOM      6  CG  HIS L   1      15.199  24.880  31.189  0.00  0.00    +0.000 A 
ATOM      7  ND1 HIS L   1      16.488  25.334  31.360  0.00  0.00    +0.000 N 
ATOM      8  CD2 HIS L   1      14.565  25.818  30.442  0.00  0.00    +0.000 A 
ATOM      9  CE1 HIS L   1      16.629  26.503  30.757  0.00  0.00    +0.000 A 
ATOM     10  NE2 HIS L   1      15.485  26.807  30.169  0.00  0.00    +0.000 NA
ATOM     11  N   TRP L   2      16.676  22.523  29.102  0.00  0.00    +0.000 N 
ATOM     12  CA  TRP L   2      16.860  22.470  27.637  0.00  0.00    +0.000 C 
ATOM     13  C   TRP L   2      16.851  21.032  27.076  0.00  0.00    +0.000 C 
ATOM     14  O   TRP L   2      16.700  20.839  25.853  0.00  0.00    +0.000 OA
ATOM     15  CB  TRP L   2      18.203  23.114  27.226  0.00  0.00    +0.000 C 
ATOM     16  CG  TRP L   2      18.144  24.626  27.204  0.00  0.00    +0.000 C 
ATOM     17  CD1 TRP L   2      17.495  25.424  26.287  0.00  0.00    +0.000 C 
ATOM     18  CD2 TRP L   2      18.754  25.505  28.150  0.00  0.00    +0.000 C 
ATOM     19  NE1 TRP L   2      17.678  26.760  26.619  0.00  0.00    +0.000 NA
ATOM     20  CE2 TRP L   2      18.449  26.828  27.759  0.00  0.00    +0.000 C 
ATOM     21  CE3 TRP L   2      19.541  25.299  29.289  0.00  0.00    +0.000 C 
ATOM     22  CZ2 TRP L   2      18.918  27.942  28.465  0.00  0.00    +0.000 C 
ATOM     23  CZ3 TRP L   2      20.006  26.402  29.990  0.00  0.00    +0.000 C 
ATOM     24  CH2 TRP L   2      19.689  27.710  29.579  0.00  0.00    +0.000 C 
ATOM     25  N   TYR L   3      17.073  20.051  27.948  0.00  0.00    +0.000 N 
ATOM     26  CA  TYR L   3      17.202  18.644  27.525  0.00  0.00    +0.000 C 
ATOM     27  C   TYR L   3      18.244  18.500  26.398  0.00  0.00    +0.000 C 
ATOM     28  O   TYR L   3      19.307  19.092  26.479  0.00  0.00    +0.000 OA
ATOM     29  CB  TYR L   3      15.815  18.100  27.101  0.00  0.00    +0.000 C 
ATOM     30  CG  TYR L   3      14.864  18.041  28.249  0.00  0.00    +0.000 A 
ATOM     31  CD1 TYR L   3      14.130  19.161  28.637  0.00  0.00    +0.000 A 
ATOM     32  CD2 TYR L   3      14.706  16.853  28.973  0.00  0.00    +0.000 A 
ATOM     33  CE1 TYR L   3      13.265  19.105  29.726  0.00  0.00    +0.000 A 
ATOM     34  CE2 TYR L   3      13.857  16.797  30.057  0.00  0.00    +0.000 A 
ATOM     35  CZ  TYR L   3      13.144  17.915  30.424  0.00  0.00    +0.000 A 
ATOM     36  OH  TYR L   3      12.300  17.823  31.491  0.00  0.00    +0.000 OA
ATOM     37  H   HIS L   1      17.211  21.356  31.396  0.00  0.00    +0.000 HD
ATOM     38  H   HIS L   1      16.694  22.081  32.804  0.00  0.00    +0.000 HD
ATOM     39  H   HIS L   1      17.334  23.008  31.576  0.00  0.00    +0.000 HD
ATOM     40  H   HIS L   1      17.196  24.861  31.855  0.00  0.00    +0.000 HD
ATOM     41  H   TRP L   2      17.470  22.647  29.670  0.00  0.00    +0.000 HD
ATOM     42  H   TYR L   3      17.154  20.271  28.904  0.00  0.00    +0.000 HD
ATOM     43  H   TYR L   3      11.803  18.570  31.761  0.00  0.00    +0.000 HD
TER 
REMARK  Name = /data/user_data/xianyang/t3-aimnet-affinity-balanced/L1/Q86X55/pocket.pdb
REMARK                            x       y       z     vdW  Elec       q    Type
REMARK                         _______ _______ _______ _____ _____    ______ ____
ATOM      1  N   ARG M   1       8.662  32.896  12.098  0.00  0.00    +0.000 N 
ATOM      2  CA  ARG M   1       7.993  32.356  13.274  0.00  0.00    +0.000 C 
ATOM      3  C   ARG M   1       8.971  32.164  14.434  0.00  0.00    +0.000 C 
ATOM      4  O   ARG M   1       8.782  31.298  15.293  0.00  0.00    +0.000 OA
ATOM      5  CB  ARG M   1       7.244  31.046  12.924  0.00  0.00    +0.000 C 
ATOM      6  CG  ARG M   1       6.036  31.224  11.988  0.00  0.00    +0.000 C 
ATOM      7  CD  ARG M   1       5.542  29.890  11.412  0.00  0.00    +0.000 C 
ATOM      8  NE  ARG M   1       6.526  29.190  10.573  0.00  0.00    +0.000 N 
ATOM      9  CZ  ARG M   1       7.038  27.970  10.832  0.00  0.00    +0.000 C 
ATOM     10  NH1 ARG M   1       7.909  27.418   9.996  0.00  0.00    +0.000 N 
ATOM     11  NH2 ARG M   1       6.696  27.294  11.922  0.00  0.00    +0.000 N 
ATOM     12  N   GLN M   2      10.028  32.980  14.454  0.00  0.00    +0.000 N 
ATOM     13  CA  GLN M   2      11.015  32.984  15.549  0.00  0.00    +0.000 C 
ATOM     14  C   GLN M   2      11.779  31.669  15.664  0.00  0.00    +0.000 C 
ATOM     15  O   GLN M   2      12.186  31.242  16.755  0.00  0.00    +0.000 OA
ATOM     16  CB  GLN M   2      10.357  33.406  16.892  0.00  0.00    +0.000 C 
ATOM     17  CG  GLN M   2       9.852  34.844  16.812  0.00  0.00    +0.000 C 
ATOM     18  CD  GLN M   2       9.105  35.283  18.055  0.00  0.00    +0.000 C 
ATOM     19  OE1 GLN M   2       9.700  35.835  18.969  0.00  0.00    +0.000 OA
ATOM     20  NE2 GLN M   2       7.816  35.031  18.098  0.00  0.00    +0.000 N 
ATOM     21  H   ARG M   1       7.984  33.012  11.345  0.00  0.00    +0.000 HD
ATOM     22  H   ARG M   1       9.396  32.254  11.799  0.00  0.00    +0.000 HD
ATOM     23  H   ARG M   1       9.074  33.801  12.327  0.00  0.00    +0.000 HD
ATOM     24  H   ARG M   1       6.835  29.648   9.758  0.00  0.00    +0.000 HD
ATOM     25  H   ARG M   1       8.180  27.898   9.180  0.00  0.00    +0.000 HD
ATOM     26  H   ARG M   1       8.284  26.529  10.192  0.00  0.00    +0.000 HD
ATOM     27  H   ARG M   1       7.082  26.404  12.091  0.00  0.00    +0.000 HD
ATOM     28  H   ARG M   1       6.056  27.682  12.561  0.00  0.00    +0.000 HD
ATOM     29  H   GLN M   2      10.154  33.606  13.705  0.00  0.00    +0.000 HD
ATOM     30  H   GLN M   2       7.376  34.584  17.339  0.00  0.00    +0.000 HD
ATOM     31  H   GLN M   2       7.290  35.289  18.889  0.00  0.00    +0.000 HD
TER 
REMARK  Name = /data/user_data/xianyang/t3-aimnet-affinity-balanced/L1/Q86X55/pocket.pdb
REMARK                            x       y       z     vdW  Elec       q    Type
REMARK                         _______ _______ _______ _____ _____    ______ ____
ATOM      1  N   LEU N   1      11.577  23.452  13.364  0.00  0.00    +0.000 N 
ATOM      2  CA  LEU N   1      12.064  23.603  14.734  0.00  0.00    +0.000 C 
ATOM      3  C   LEU N   1      11.036  24.204  15.709  0.00  0.00    +0.000 C 
ATOM      4  O   LEU N   1      11.034  23.835  16.877  0.00  0.00    +0.000 OA
ATOM      5  CB  LEU N   1      13.385  24.395  14.769  0.00  0.00    +0.000 C 
ATOM      6  CG  LEU N   1      14.095  24.500  16.133  0.00  0.00    +0.000 C 
ATOM      7  CD2 LEU N   1      14.539  23.173  16.770  0.00  0.00    +0.000 C 
ATOM      8  CD1 LEU N   1      15.304  25.405  15.962  0.00  0.00    +0.000 C 
ATOM      9  N   LYS N   2      10.144  25.074  15.214  0.00  0.00    +0.000 N 
ATOM     10  CA  LYS N   2       9.190  25.795  16.068  0.00  0.00    +0.000 C 
ATOM     11  C   LYS N   2       8.157  24.837  16.658  0.00  0.00    +0.000 C 
ATOM     12  O   LYS N   2       7.561  25.134  17.698  0.00  0.00    +0.000 OA
ATOM     13  CB  LYS N   2       8.460  26.879  15.256  0.00  0.00    +0.000 C 
ATOM     14  CG  LYS N   2       7.479  27.776  16.035  0.00  0.00    +0.000 C 
ATOM     15  CD  LYS N   2       8.164  28.542  17.178  0.00  0.00    +0.000 C 
ATOM     16  CE  LYS N   2       7.238  29.579  17.843  0.00  0.00    +0.000 C 
ATOM     17  NZ  LYS N   2       6.637  30.570  16.902  0.00  0.00    +0.000 N 
ATOM     18  N   ASN N   3       7.929  23.713  15.967  0.00  0.00    +0.000 N 
ATOM     19  CA  ASN N   3       6.907  22.738  16.364  0.00  0.00    +0.000 C 
ATOM     20  C   ASN N   3       7.462  21.349  16.590  0.00  0.00    +0.000 C 
ATOM     21  O   ASN N   3       7.207  20.438  15.790  0.00  0.00    +0.000 OA
ATOM     22  CB  ASN N   3       5.807  22.727  15.293  0.00  0.00    +0.000 C 
ATOM     23  CG  ASN N   3       5.111  24.064  15.195  0.00  0.00    +0.000 C 
ATOM     24  OD1 ASN N   3       4.506  24.518  16.169  0.00  0.00    +0.000 OA
ATOM     25  ND2 ASN N   3       5.227  24.726  14.049  0.00  0.00    +0.000 N 
ATOM     26  N   PRO N   4       8.232  21.175  17.669  0.00  0.00    +0.000 N 
ATOM     27  CA  PRO N   4       8.832  19.893  17.899  0.00  0.00    +0.000 C 
ATOM     28  C   PRO N   4       7.906  18.952  18.678  0.00  0.00    +0.000 C 
ATOM     29  O   PRO N   4       6.762  19.312  19.025  0.00  0.00    +0.000 OA
ATOM     30  CB  PRO N   4      10.026  20.242  18.770  0.00  0.00    +0.000 C 
ATOM     31  CG  PRO N   4       9.546  21.374  19.608  0.00  0.00    +0.000 C 
ATOM     32  CD  PRO N   4       8.535  22.115  18.777  0.00  0.00    +0.000 C 
ATOM     33  H   LEU N   1      12.313  23.050  12.784  0.00  0.00    +0.000 HD
ATOM     34  H   LEU N   1      11.314  24.365  12.994  0.00  0.00    +0.000 HD
ATOM     35  H   LEU N   1      10.764  22.836  13.358  0.00  0.00    +0.000 HD
ATOM     36  H   LYS N   2      10.128  25.236  14.243  0.00  0.00    +0.000 HD
ATOM     37  H   LYS N   2       6.044  30.084  16.230  0.00  0.00    +0.000 HD
ATOM     38  H   LYS N   2       7.380  31.062  16.406  0.00  0.00    +0.000 HD
ATOM     39  H   LYS N   2       6.077  31.241  17.427  0.00  0.00    +0.000 HD
ATOM     40  H   ASN N   3       8.467  23.534  15.162  0.00  0.00    +0.000 HD
ATOM     41  H   ASN N   3       5.719  24.325  13.297  0.00  0.00    +0.000 HD
ATOM     42  H   ASN N   3       4.821  25.617  13.952  0.00  0.00    +0.000 HD
TER 
REMARK  Name = /data/user_data/xianyang/t3-aimnet-affinity-balanced/L1/Q86X55/pocket.pdb
REMARK                            x       y       z     vdW  Elec       q    Type
REMARK                         _______ _______ _______ _____ _____    ______ ____
ATOM      1  N   PHE O   1       7.601  17.462  22.116  0.00  0.00    +0.000 N 
ATOM      2  CA  PHE O   1       8.153  17.624  23.469  0.00  0.00    +0.000 C 
ATOM      3  C   PHE O   1       8.086  16.297  24.226  0.00  0.00    +0.000 C 
ATOM      4  O   PHE O   1       7.337  16.158  25.196  0.00  0.00    +0.000 OA
ATOM      5  CB  PHE O   1       7.448  18.755  24.246  0.00  0.00    +0.000 C 
ATOM      6  CG  PHE O   1       7.567  20.123  23.601  0.00  0.00    +0.000 A 
ATOM      7  CD2 PHE O   1       8.744  20.865  23.715  0.00  0.00    +0.000 A 
ATOM      8  CD1 PHE O   1       6.493  20.670  22.899  0.00  0.00    +0.000 A 
ATOM      9  CE2 PHE O   1       8.842  22.123  23.128  0.00  0.00    +0.000 A 
ATOM     10  CE1 PHE O   1       6.586  21.922  22.315  0.00  0.00    +0.000 A 
ATOM     11  CZ  PHE O   1       7.753  22.656  22.449  0.00  0.00    +0.000 A 
ATOM     12  H   PHE O   1       8.092  16.707  21.637  0.00  0.00    +0.000 HD
ATOM     13  H   PHE O   1       7.720  18.330  21.594  0.00  0.00    +0.000 HD
ATOM     14  H   PHE O   1       6.608  17.236  22.179  0.00  0.00    +0.000 HD
TER 
REMARK  Name = /data/user_data/xianyang/t3-aimnet-affinity-balanced/L1/Q86X55/pocket.pdb
REMARK                            x       y       z     vdW  Elec       q    Type
REMARK                         _______ _______ _______ _____ _____    ______ ____
ATOM      1  N   TYR P   1       9.801  14.620  26.309  0.00  0.00    +0.000 N 
ATOM      2  CA  TYR P   1      10.030  14.537  27.748  0.00  0.00    +0.000 C 
ATOM      3  C   TYR P   1       8.765  14.652  28.614  0.00  0.00    +0.000 C 
ATOM      4  O   TYR P   1       8.783  14.225  29.753  0.00  0.00    +0.000 OA
ATOM      5  CB  TYR P   1      11.090  15.551  28.191  0.00  0.00    +0.000 C 
ATOM      6  CG  TYR P   1      10.616  16.982  28.179  0.00  0.00    +0.000 A 
ATOM      7  CD2 TYR P   1       9.941  17.524  29.273  0.00  0.00    +0.000 A 
ATOM      8  CD1 TYR P   1      10.859  17.801  27.085  0.00  0.00    +0.000 A 
ATOM      9  CE2 TYR P   1       9.507  18.845  29.269  0.00  0.00    +0.000 A 
ATOM     10  CE1 TYR P   1      10.423  19.111  27.067  0.00  0.00    +0.000 A 
ATOM     11  CZ  TYR P   1       9.763  19.630  28.165  0.00  0.00    +0.000 A 
ATOM     12  OH  TYR P   1       9.335  20.938  28.141  0.00  0.00    +0.000 OA
ATOM     13  N   THR P   2       7.675  15.205  28.083  0.00  0.00    +0.000 N 
ATOM     14  CA  THR P   2       6.457  15.405  28.890  0.00  0.00    +0.000 C 
ATOM     15  C   THR P   2       5.632  14.134  29.225  0.00  0.00    +0.000 C 
ATOM     16  O   THR P   2       5.636  13.152  28.475  0.00  0.00    +0.000 OA
ATOM     17  CB  THR P   2       5.518  16.450  28.278  0.00  0.00    +0.000 C 
ATOM     18  OG1 THR P   2       5.040  15.987  27.016  0.00  0.00    +0.000 OA
ATOM     19  CG2 THR P   2       6.230  17.771  28.072  0.00  0.00    +0.000 C 
ATOM     20  H   TYR P   1      10.691  14.535  25.818  0.00  0.00    +0.000 HD
ATOM     21  H   TYR P   1       9.373  15.518  26.084  0.00  0.00    +0.000 HD
ATOM     22  H   TYR P   1       9.179  13.865  26.020  0.00  0.00    +0.000 HD
ATOM     23  H   TYR P   1       9.508  21.474  27.392  0.00  0.00    +0.000 HD
ATOM     24  H   THR P   2       7.683  15.484  27.139  0.00  0.00    +0.000 HD
ATOM     25  H   THR P   2       5.789  15.859  26.414  0.00  0.00    +0.000 HD
TER 
