REMARK  Name = /data/user_data/xianyang/t3-aimnet-affinity-balanced/L4/Q9GZQ6/pocket.pdb
REMARK                            x       y       z     vdW  Elec       q    Type
REMARK                         _______ _______ _______ _____ _____    ______ ____
ATOM      1  N   MET A   1       6.082   0.271  30.105  0.00  0.00    +0.000 N 
ATOM      2  CA  MET A   1       5.125   1.147  29.418  0.00  0.00    +0.000 C 
ATOM      3  C   MET A   1       5.228   2.573  29.940  0.00  0.00    +0.000 C 
ATOM      4  O   MET A   1       6.155   2.912  30.668  0.00  0.00    +0.000 OA
ATOM      5  CB  MET A   1       3.710   0.619  29.601  0.00  0.00    +0.000 C 
ATOM      6  CG  MET A   1       3.517  -0.792  29.059  0.00  0.00    +0.000 C 
ATOM      7  SD  MET A   1       3.905  -0.908  27.300  0.00  0.00    +0.000 S 
ATOM      8  CE  MET A   1       2.591   0.116  26.604  0.00  0.00    +0.000 C 
ATOM      9  N   GLU A   2       4.257   3.395  29.554  0.00  0.00    +0.000 N 
ATOM     10  CA  GLU A   2       4.236   4.797  29.940  0.00  0.00    +0.000 C 
ATOM     11  C   GLU A   2       3.118   5.070  30.934  0.00  0.00    +0.000 C 
ATOM     12  O   GLU A   2       2.050   4.465  30.873  0.00  0.00    +0.000 OA
ATOM     13  CB  GLU A   2       4.056   5.688  28.709  0.00  0.00    +0.000 C 
ATOM     14  CG  GLU A   2       5.247   5.665  27.760  0.00  0.00    +0.000 C 
ATOM     15  CD  GLU A   2       6.460   6.335  28.365  0.00  0.00    +0.000 C 
ATOM     16  OE2 GLU A   2       6.281   7.326  29.087  0.00  0.00    +0.000 OA
ATOM     17  OE1 GLU A   2       7.586   5.869  28.110  0.00  0.00    +0.000 OA
ATOM     18  H   MET A   1       5.996  -0.678  29.741  0.00  0.00    +0.000 HD
ATOM     19  H   MET A   1       5.884   0.270  31.106  0.00  0.00    +0.000 HD
ATOM     20  H   MET A   1       7.030   0.612  29.946  0.00  0.00    +0.000 HD
ATOM     21  H   GLU A   2       3.530   3.044  28.990  0.00  0.00    +0.000 HD
TER 
REMARK  Name = /data/user_data/xianyang/t3-aimnet-affinity-balanced/L4/Q9GZQ6/pocket.pdb
REMARK                            x       y       z     vdW  Elec       q    Type
REMARK                         _______ _______ _______ _____ _____    ______ ____
ATOM      1  N   SER B   1      -0.344  13.261  24.721  0.00  0.00    +0.000 N 
ATOM      2  CA  SER B   1      -1.366  12.426  24.106  0.00  0.00    +0.000 C 
ATOM      3  C   SER B   1      -1.178  10.944  24.406  0.00  0.00    +0.000 C 
ATOM      4  O   SER B   1      -1.981  10.121  23.959  0.00  0.00    +0.000 OA
ATOM      5  CB  SER B   1      -1.373  12.645  22.588  0.00  0.00    +0.000 C 
ATOM      6  OG  SER B   1      -0.132  12.285  22.019  0.00  0.00    +0.000 OA
ATOM      7  N   TRP B   2      -0.136  10.605  25.148  0.00  0.00    +0.000 N 
ATOM      8  CA  TRP B   2       0.109   9.207  25.496  0.00  0.00    +0.000 C 
ATOM      9  C   TRP B   2      -0.949   8.711  26.477  0.00  0.00    +0.000 C 
ATOM     10  O   TRP B   2      -1.215   9.360  27.493  0.00  0.00    +0.000 OA
ATOM     11  CB  TRP B   2       1.502   9.042  26.108  0.00  0.00    +0.000 C 
ATOM     12  CG  TRP B   2       2.627   9.098  25.131  0.00  0.00    +0.000 C 
ATOM     13  CD1 TRP B   2       3.111  10.206  24.508  0.00  0.00    +0.000 C 
ATOM     14  CD2 TRP B   2       3.418   8.014  24.659  0.00  0.00    +0.000 C 
ATOM     15  NE1 TRP B   2       4.139   9.871  23.674  0.00  0.00    +0.000 NA
ATOM     16  CE2 TRP B   2       4.357   8.533  23.748  0.00  0.00    +0.000 C 
ATOM     17  CE3 TRP B   2       3.419   6.643  24.921  0.00  0.00    +0.000 C 
ATOM     18  CZ2 TRP B   2       5.289   7.725  23.094  0.00  0.00    +0.000 C 
ATOM     19  CZ3 TRP B   2       4.354   5.837  24.273  0.00  0.00    +0.000 C 
ATOM     20  CH2 TRP B   2       5.276   6.383  23.370  0.00  0.00    +0.000 C 
ATOM     21  N   PRO B   3      -1.556   7.561  26.195  0.00  0.00    +0.000 N 
ATOM     22  CA  PRO B   3      -2.525   7.005  27.137  0.00  0.00    +0.000 C 
ATOM     23  C   PRO B   3      -1.831   6.367  28.338  0.00  0.00    +0.000 C 
ATOM     24  O   PRO B   3      -0.645   6.035  28.291  0.00  0.00    +0.000 OA
ATOM     25  CB  PRO B   3      -3.265   5.953  26.307  0.00  0.00    +0.000 C 
ATOM     26  CG  PRO B   3      -2.257   5.517  25.305  0.00  0.00    +0.000 C 
ATOM     27  CD  PRO B   3      -1.427   6.731  24.986  0.00  0.00    +0.000 C 
ATOM     28  H   SER B   1      -0.518  14.239  24.488  0.00  0.00    +0.000 HD
ATOM     29  H   SER B   1       0.574  12.987  24.372  0.00  0.00    +0.000 HD
ATOM     30  H   SER B   1      -0.372  13.142  25.734  0.00  0.00    +0.000 HD
ATOM     31  H   SER B   1       0.040  11.345  22.187  0.00  0.00    +0.000 HD
ATOM     32  H   TRP B   2       0.481  11.302  25.469  0.00  0.00    +0.000 HD
TER 
REMARK  Name = /data/user_data/xianyang/t3-aimnet-affinity-balanced/L4/Q9GZQ6/pocket.pdb
REMARK                            x       y       z     vdW  Elec       q    Type
REMARK                         _______ _______ _______ _____ _____    ______ ____
ATOM      1  N   SER C   1      -0.618   3.657  30.508  0.00  0.00    +0.000 N 
ATOM      2  CA  SER C   1      -0.286   2.252  30.328  0.00  0.00    +0.000 C 
ATOM      3  CB  SER C   1       0.960   1.935  31.150  0.00  0.00    +0.000 C 
ATOM      4  OG  SER C   1       2.083   2.195  30.719  0.00  0.00    +0.000 OA
ATOM      5  C   SER C   1      -0.050   1.920  28.855  0.00  0.00    +0.000 C 
ATOM      6  O   SER C   1       0.242   0.546  28.680  0.00  0.00    +0.000 OA
ATOM      7  H   SER C   1      -1.450   3.882  29.963  0.00  0.00    +0.000 HD
ATOM      8  H   SER C   1       0.162   4.234  30.192  0.00  0.00    +0.000 HD
ATOM      9  H   SER C   1      -0.798   3.840  31.495  0.00  0.00    +0.000 HD
ATOM     10  H   SER C   1      -0.508   0.014  28.990  0.00  0.00    +0.000 HD
TER 
REMARK  Name = /data/user_data/xianyang/t3-aimnet-affinity-balanced/L4/Q9GZQ6/pocket.pdb
REMARK                            x       y       z     vdW  Elec       q    Type
REMARK                         _______ _______ _______ _____ _____    ______ ____
ATOM      1  N   GLN D   1       8.124  -5.134  25.911  0.00  0.00    +0.000 N 
ATOM      2  CA  GLN D   1       6.704  -5.180  26.229  0.00  0.00    +0.000 C 
ATOM      3  C   GLN D   1       6.118  -6.582  26.156  0.00  0.00    +0.000 C 
ATOM      4  O   GLN D   1       5.029  -6.817  26.685  0.00  0.00    +0.000 OA
ATOM      5  CB  GLN D   1       5.922  -4.255  25.290  0.00  0.00    +0.000 C 
ATOM      6  CG  GLN D   1       6.334  -2.800  25.347  0.00  0.00    +0.000 C 
ATOM      7  CD  GLN D   1       5.400  -1.921  24.547  0.00  0.00    +0.000 C 
ATOM      8  OE1 GLN D   1       4.187  -1.927  24.761  0.00  0.00    +0.000 OA
ATOM      9  NE2 GLN D   1       5.949  -1.156  23.615  0.00  0.00    +0.000 N 
ATOM     10  H   GLN D   1       8.456  -4.172  25.977  0.00  0.00    +0.000 HD
ATOM     11  H   GLN D   1       8.272  -5.480  24.963  0.00  0.00    +0.000 HD
ATOM     12  H   GLN D   1       8.639  -5.718  26.570  0.00  0.00    +0.000 HD
ATOM     13  H   GLN D   1       5.383  -0.565  23.067  0.00  0.00    +0.000 HD
ATOM     14  H   GLN D   1       6.923  -1.178  23.471  0.00  0.00    +0.000 HD
TER 
REMARK  Name = /data/user_data/xianyang/t3-aimnet-affinity-balanced/L4/Q9GZQ6/pocket.pdb
REMARK                            x       y       z     vdW  Elec       q    Type
REMARK                         _______ _______ _______ _____ _____    ______ ____
ATOM      1  N   PHE E   1       9.515   2.739   6.005  0.00  0.00    +0.000 N 
ATOM      2  CA  PHE E   1       9.469   3.636   7.156  0.00  0.00    +0.000 C 
ATOM      3  C   PHE E   1       8.513   3.191   8.253  0.00  0.00    +0.000 C 
ATOM      4  O   PHE E   1       8.826   3.335   9.436  0.00  0.00    +0.000 OA
ATOM      5  CB  PHE E   1       9.097   5.053   6.708  0.00  0.00    +0.000 C 
ATOM      6  CG  PHE E   1      10.156   5.728   5.886  0.00  0.00    +0.000 A 
ATOM      7  CD2 PHE E   1      11.214   6.377   6.499  0.00  0.00    +0.000 A 
ATOM      8  CD1 PHE E   1      10.092   5.718   4.498  0.00  0.00    +0.000 A 
ATOM      9  CE2 PHE E   1      12.193   7.005   5.747  0.00  0.00    +0.000 A 
ATOM     10  CE1 PHE E   1      11.067   6.341   3.738  0.00  0.00    +0.000 A 
ATOM     11  CZ  PHE E   1      12.119   6.984   4.364  0.00  0.00    +0.000 A 
ATOM     12  N   CYS E   2       7.359   2.655   7.892  0.00  0.00    +0.000 N 
ATOM     13  CA  CYS E   2       6.324   2.393   8.889  0.00  0.00    +0.000 C 
ATOM     14  C   CYS E   2       6.533   1.073   9.620  0.00  0.00    +0.000 C 
ATOM     15  O   CYS E   2       6.388   1.016  10.846  0.00  0.00    +0.000 OA
ATOM     16  CB  CYS E   2       4.941   2.421   8.235  0.00  0.00    +0.000 C 
ATOM     17  SG  CYS E   2       4.609   3.935   7.309  0.00  0.00    +0.000 S 
ATOM     18  H   PHE E   1      10.174   3.103   5.317  0.00  0.00    +0.000 HD
ATOM     19  H   PHE E   1       8.587   2.675   5.586  0.00  0.00    +0.000 HD
ATOM     20  H   PHE E   1       9.816   1.813   6.308  0.00  0.00    +0.000 HD
ATOM     21  H   CYS E   2       7.197   2.432   6.947  0.00  0.00    +0.000 HD
ATOM     22  H   CYS E   2       5.502   4.047   6.289  0.00  0.00    +0.000 HD
TER 
REMARK  Name = /data/user_data/xianyang/t3-aimnet-affinity-balanced/L4/Q9GZQ6/pocket.pdb
REMARK                            x       y       z     vdW  Elec       q    Type
REMARK                         _______ _______ _______ _____ _____    ______ ____
ATOM      1  N   THR F   1       9.715   1.037  12.309  0.00  0.00    +0.000 N 
ATOM      2  CA  THR F   1       9.486   1.882  13.473  0.00  0.00    +0.000 C 
ATOM      3  C   THR F   1       8.306   1.386  14.300  0.00  0.00    +0.000 C 
ATOM      4  O   THR F   1       8.338   1.451  15.532  0.00  0.00    +0.000 OA
ATOM      5  CB  THR F   1       9.247   3.335  13.050  0.00  0.00    +0.000 C 
ATOM      6  OG1 THR F   1       8.193   3.389  12.084  0.00  0.00    +0.000 OA
ATOM      7  CG2 THR F   1      10.516   3.917  12.442  0.00  0.00    +0.000 C 
ATOM      8  N   THR F   2       7.271   0.885  13.649  0.00  0.00    +0.000 N 
ATOM      9  CA  THR F   2       6.113   0.372  14.373  0.00  0.00    +0.000 C 
ATOM     10  C   THR F   2       6.463  -0.905  15.128  0.00  0.00    +0.000 C 
ATOM     11  O   THR F   2       6.032  -1.088  16.270  0.00  0.00    +0.000 OA
ATOM     12  CB  THR F   2       4.946   0.119  13.412  0.00  0.00    +0.000 C 
ATOM     13  OG1 THR F   2       4.583   1.345  12.765  0.00  0.00    +0.000 OA
ATOM     14  CG2 THR F   2       3.742  -0.427  14.170  0.00  0.00    +0.000 C 
ATOM     15  N   LEU F   3       7.237  -1.789  14.508  0.00  0.00    +0.000 N 
ATOM     16  CA  LEU F   3       7.626  -3.030  15.168  0.00  0.00    +0.000 C 
ATOM     17  C   LEU F   3       8.455  -2.749  16.412  0.00  0.00    +0.000 C 
ATOM     18  O   LEU F   3       8.223  -3.339  17.470  0.00  0.00    +0.000 OA
ATOM     19  CB  LEU F   3       8.406  -3.934  14.208  0.00  0.00    +0.000 C 
ATOM     20  CG  LEU F   3       8.988  -5.207  14.816  0.00  0.00    +0.000 C 
ATOM     21  CD2 LEU F   3       7.888  -6.081  15.405  0.00  0.00    +0.000 C 
ATOM     22  CD1 LEU F   3       9.794  -5.969  13.779  0.00  0.00    +0.000 C 
ATOM     23  H   THR F   1      10.509   1.396  11.779  0.00  0.00    +0.000 HD
ATOM     24  H   THR F   1       8.883   1.039  11.718  0.00  0.00    +0.000 HD
ATOM     25  H   THR F   1       9.913   0.084  12.614  0.00  0.00    +0.000 HD
ATOM     26  H   THR F   1       8.443   2.871  11.303  0.00  0.00    +0.000 HD
ATOM     27  H   THR F   2       7.281   0.858  12.665  0.00  0.00    +0.000 HD
ATOM     28  H   THR F   2       4.306   1.993  13.432  0.00  0.00    +0.000 HD
ATOM     29  H   LEU F   3       7.551  -1.604  13.593  0.00  0.00    +0.000 HD
TER 
REMARK  Name = /data/user_data/xianyang/t3-aimnet-affinity-balanced/L4/Q9GZQ6/pocket.pdb
REMARK                            x       y       z     vdW  Elec       q    Type
REMARK                         _______ _______ _______ _____ _____    ______ ____
ATOM      1  N   ASP G   1       8.514   0.038  18.138  0.00  0.00    +0.000 N 
ATOM      2  CA  ASP G   1       7.660   0.711  19.113  0.00  0.00    +0.000 C 
ATOM      3  C   ASP G   1       6.754  -0.280  19.840  0.00  0.00    +0.000 C 
ATOM      4  O   ASP G   1       6.432  -0.084  21.014  0.00  0.00    +0.000 OA
ATOM      5  CB  ASP G   1       6.828   1.790  18.414  0.00  0.00    +0.000 C 
ATOM      6  CG  ASP G   1       5.963   2.582  19.376  0.00  0.00    +0.000 C 
ATOM      7  OD2 ASP G   1       6.520   3.379  20.155  0.00  0.00    +0.000 OA
ATOM      8  OD1 ASP G   1       4.731   2.407  19.339  0.00  0.00    +0.000 OA
ATOM      9  N   ASN G   2       6.340  -1.335  19.156  0.00  0.00    +0.000 N 
ATOM     10  CA  ASN G   2       5.488  -2.341  19.776  0.00  0.00    +0.000 C 
ATOM     11  C   ASN G   2       6.272  -3.308  20.658  0.00  0.00    +0.000 C 
ATOM     12  O   ASN G   2       5.698  -3.908  21.575  0.00  0.00    +0.000 OA
ATOM     13  CB  ASN G   2       4.727  -3.127  18.703  0.00  0.00    +0.000 C 
ATOM     14  CG  ASN G   2       3.643  -2.300  18.039  0.00  0.00    +0.000 C 
ATOM     15  OD1 ASN G   2       3.121  -1.354  18.620  0.00  0.00    +0.000 OA
ATOM     16  ND2 ASN G   2       3.293  -2.666  16.809  0.00  0.00    +0.000 N 
ATOM     17  H   ASP G   1       9.105   0.726  17.671  0.00  0.00    +0.000 HD
ATOM     18  H   ASP G   1       7.933  -0.436  17.447  0.00  0.00    +0.000 HD
ATOM     19  H   ASP G   1       9.101  -0.646  18.615  0.00  0.00    +0.000 HD
ATOM     20  H   ASN G   2       6.612  -1.441  18.216  0.00  0.00    +0.000 HD
ATOM     21  H   ASN G   2       2.595  -2.167  16.327  0.00  0.00    +0.000 HD
ATOM     22  H   ASN G   2       3.732  -3.436  16.381  0.00  0.00    +0.000 HD
TER 
REMARK  Name = /data/user_data/xianyang/t3-aimnet-affinity-balanced/L4/Q9GZQ6/pocket.pdb
REMARK                            x       y       z     vdW  Elec       q    Type
REMARK                         _______ _______ _______ _____ _____    ______ ____
ATOM      1  N   ILE H   1       9.652  -2.629  22.145  0.00  0.00    +0.000 N 
ATOM      2  CA  ILE H   1      10.479  -1.994  23.156  0.00  0.00    +0.000 C 
ATOM      3  C   ILE H   1       9.686  -0.911  23.867  0.00  0.00    +0.000 C 
ATOM      4  O   ILE H   1       8.975  -0.121  23.242  0.00  0.00    +0.000 OA
ATOM      5  CB  ILE H   1      11.766  -1.403  22.537  0.00  0.00    +0.000 C 
ATOM      6  CG1 ILE H   1      12.573  -2.518  21.863  0.00  0.00    +0.000 C 
ATOM      7  CG2 ILE H   1      12.602  -0.706  23.601  0.00  0.00    +0.000 C 
ATOM      8  CD1 ILE H   1      13.829  -2.024  21.159  0.00  0.00    +0.000 C 
ATOM      9  H   ILE H   1      10.190  -3.355  21.672  0.00  0.00    +0.000 HD
ATOM     10  H   ILE H   1       9.351  -1.931  21.465  0.00  0.00    +0.000 HD
ATOM     11  H   ILE H   1       8.834  -3.047  22.588  0.00  0.00    +0.000 HD
TER 
REMARK  Name = /data/user_data/xianyang/t3-aimnet-affinity-balanced/L4/Q9GZQ6/pocket.pdb
REMARK                            x       y       z     vdW  Elec       q    Type
REMARK                         _______ _______ _______ _____ _____    ______ ____
ATOM      1  N   TRP I   1      10.763   5.040  23.043  0.00  0.00    +0.000 N 
ATOM      2  CA  TRP I   1      11.182   5.347  21.682  0.00  0.00    +0.000 C 
ATOM      3  C   TRP I   1      12.704   5.294  21.589  0.00  0.00    +0.000 C 
ATOM      4  O   TRP I   1      13.395   6.096  22.226  0.00  0.00    +0.000 OA
ATOM      5  CB  TRP I   1      10.662   6.728  21.272  0.00  0.00    +0.000 C 
ATOM      6  CG  TRP I   1      11.020   7.170  19.889  0.00  0.00    +0.000 C 
ATOM      7  CD1 TRP I   1      12.010   8.051  19.545  0.00  0.00    +0.000 C 
ATOM      8  CD2 TRP I   1      10.401   6.772  18.665  0.00  0.00    +0.000 A 
ATOM      9  NE1 TRP I   1      12.033   8.221  18.182  0.00  0.00    +0.000 NA
ATOM     10  CE2 TRP I   1      11.060   7.448  17.614  0.00  0.00    +0.000 A 
ATOM     11  CE3 TRP I   1       9.343   5.909  18.351  0.00  0.00    +0.000 A 
ATOM     12  CZ2 TRP I   1      10.690   7.288  16.283  0.00  0.00    +0.000 A 
ATOM     13  CZ3 TRP I   1       8.977   5.753  17.027  0.00  0.00    +0.000 A 
ATOM     14  CH2 TRP I   1       9.651   6.436  16.006  0.00  0.00    +0.000 A 
ATOM     15  H   TRP I   1       9.745   5.076  23.102  0.00  0.00    +0.000 HD
ATOM     16  H   TRP I   1      11.165   5.723  23.685  0.00  0.00    +0.000 HD
ATOM     17  H   TRP I   1      11.085   4.106  23.295  0.00  0.00    +0.000 HD
TER 
REMARK  Name = /data/user_data/xianyang/t3-aimnet-affinity-balanced/L4/Q9GZQ6/pocket.pdb
REMARK                            x       y       z     vdW  Elec       q    Type
REMARK                         _______ _______ _______ _____ _____    ______ ____
ATOM      1  N   CYS J   1      13.830  11.003  13.341  0.00  0.00    +0.000 N 
ATOM      2  CA  CYS J   1      13.125   9.789  12.958  0.00  0.00    +0.000 C 
ATOM      3  C   CYS J   1      11.697   9.804  13.484  0.00  0.00    +0.000 C 
ATOM      4  O   CYS J   1      10.783   9.306  12.820  0.00  0.00    +0.000 OA
ATOM      5  CB  CYS J   1      13.873   8.556  13.473  0.00  0.00    +0.000 C 
ATOM      6  OG1 CYS J   1      15.209   8.557  12.956  0.00  0.00    +0.000 OA
ATOM      7  CG2 CYS J   1      13.167   7.278  13.032  0.00  0.00    +0.000 C 
ATOM      8  N   TRP J   2      11.494  10.371  14.667  0.00  0.00    +0.000 N 
ATOM      9  CA  TRP J   2      10.153  10.477  15.230  0.00  0.00    +0.000 C 
ATOM     10  C   TRP J   2       9.251  11.301  14.318  0.00  0.00    +0.000 C 
ATOM     11  O   TRP J   2       8.142  10.875  13.979  0.00  0.00    +0.000 OA
ATOM     12  CB  TRP J   2      10.221  11.096  16.629  0.00  0.00    +0.000 C 
ATOM     13  SG  TRP J   2       8.618  11.548  17.349  0.00  0.00    +0.000 S 
ATOM     14  N   GLU J   3       9.716  12.468  13.914  0.00  0.00    +0.000 N 
ATOM     15  CA  GLU J   3       8.923  13.342  13.058  0.00  0.00    +0.000 C 
ATOM     16  C   GLU J   3       8.768  12.776  11.656  0.00  0.00    +0.000 C 
ATOM     17  O   GLU J   3       7.675  12.813  11.082  0.00  0.00    +0.000 OA
ATOM     18  CB  GLU J   3       9.562  14.733  12.993  0.00  0.00    +0.000 C 
ATOM     19  CG  GLU J   3       9.531  15.497  14.308  0.00  0.00    +0.000 C 
ATOM     20  CD  GLU J   3      10.147  16.873  14.153  0.00  0.00    +0.000 C 
ATOM     21  CE  GLU J   3      10.050  17.677  15.447  0.00  0.00    +0.000 C 
ATOM     22  NZ  GLU J   3       8.634  17.982  15.791  0.00  0.00    +0.000 N 
ATOM     23  N   CYS J   1       8.235   9.143  21.988  0.00  0.00    +0.000 N 
ATOM     24  CA  CYS J   1       7.864   9.923  20.820  0.00  0.00    +0.000 C 
ATOM     25  C   CYS J   1       6.363  10.169  20.903  0.00  0.00    +0.000 C 
ATOM     26  O   CYS J   1       5.570   9.229  20.772  0.00  0.00    +0.000 OA
ATOM     27  CB  CYS J   1       8.233   9.186  19.532  0.00  0.00    +0.000 C 
ATOM     28  SG  CYS J   1       7.577   9.927  18.013  0.00  0.00    +0.000 S 
ATOM     29  N   TRP J   2       5.978  11.424  21.150  0.00  0.00    +0.000 N 
ATOM     30  CA  TRP J   2       4.587  11.737  21.409  0.00  0.00    +0.000 C 
ATOM     31  C   TRP J   2       4.205  13.052  20.757  0.00  0.00    +0.000 C 
ATOM     32  O   TRP J   2       5.061  13.862  20.402  0.00  0.00    +0.000 OA
ATOM     33  CB  TRP J   2       4.338  11.753  22.928  0.00  0.00    +0.000 C 
ATOM     34  CG  TRP J   2       4.075  13.068  23.582  0.00  0.00    +0.000 C 
ATOM     35  CD1 TRP J   2       2.867  13.499  24.059  0.00  0.00    +0.000 C 
ATOM     36  CD2 TRP J   2       5.001  14.123  23.870  0.00  0.00    +0.000 A 
ATOM     37  NE1 TRP J   2       2.993  14.745  24.614  0.00  0.00    +0.000 NA
ATOM     38  CE2 TRP J   2       4.292  15.158  24.513  0.00  0.00    +0.000 A 
ATOM     39  CE3 TRP J   2       6.371  14.289  23.639  0.00  0.00    +0.000 A 
ATOM     40  CZ2 TRP J   2       4.901  16.341  24.937  0.00  0.00    +0.000 A 
ATOM     41  CZ3 TRP J   2       6.974  15.461  24.061  0.00  0.00    +0.000 A 
ATOM     42  CH2 TRP J   2       6.242  16.473  24.701  0.00  0.00    +0.000 A 
ATOM     43  N   GLU J   3       2.907  13.246  20.565  0.00  0.00    +0.000 N 
ATOM     44  CA  GLU J   3       2.398  14.473  19.968  0.00  0.00    +0.000 C 
ATOM     45  C   GLU J   3       2.158  15.509  21.056  0.00  0.00    +0.000 C 
ATOM     46  O   GLU J   3       1.274  15.347  21.896  0.00  0.00    +0.000 OA
ATOM     47  CB  GLU J   3       1.104  14.209  19.199  0.00  0.00    +0.000 C 
ATOM     48  CG  GLU J   3       1.253  13.245  18.039  0.00  0.00    +0.000 C 
ATOM     49  CD  GLU J   3      -0.035  13.070  17.249  0.00  0.00    +0.000 C 
ATOM     50  OE2 GLU J   3      -1.000  13.821  17.500  0.00  0.00    +0.000 OA
ATOM     51  OE1 GLU J   3      -0.084  12.185  16.376  0.00  0.00    +0.000 OA
ATOM     52  H   CYS J   1      14.783  10.971  12.979  0.00  0.00    +0.000 HD
ATOM     53  H   CYS J   1      13.855  11.075  14.358  0.00  0.00    +0.000 HD
ATOM     54  H   CYS J   1      13.346  11.813  12.955  0.00  0.00    +0.000 HD
ATOM     55  H   CYS J   1      15.181   8.525  11.987  0.00  0.00    +0.000 HD
ATOM     56  H   TRP J   2      12.261  10.726  15.172  0.00  0.00    +0.000 HD
ATOM     57  H   GLU J   3      10.615  12.754  14.196  0.00  0.00    +0.000 HD
ATOM     58  H   GLU J   3       8.215  18.539  15.046  0.00  0.00    +0.000 HD
ATOM     59  H   GLU J   3       8.602  18.506  16.666  0.00  0.00    +0.000 HD
ATOM     60  H   GLU J   3       8.115  17.111  15.897  0.00  0.00    +0.000 HD
ATOM     61  H   CYS J   1       9.238   8.957  21.968  0.00  0.00    +0.000 HD
ATOM     62  H   CYS J   1       7.725   8.260  21.983  0.00  0.00    +0.000 HD
ATOM     63  H   CYS J   1       8.003   9.665  22.833  0.00  0.00    +0.000 HD
ATOM     64  H   TRP J   2       6.648  12.146  21.156  0.00  0.00    +0.000 HD
ATOM     65  H   GLU J   3       2.272  12.543  20.833  0.00  0.00    +0.000 HD
TER 
REMARK  Name = /data/user_data/xianyang/t3-aimnet-affinity-balanced/L4/Q9GZQ6/pocket.pdb
REMARK                            x       y       z     vdW  Elec       q    Type
REMARK                         _______ _______ _______ _____ _____    ______ ____
ATOM      1  N   SER K   1       9.034   9.582  10.624  0.00  0.00    +0.000 N 
ATOM      2  CA  SER K   1       8.233   8.362  10.597  0.00  0.00    +0.000 C 
ATOM      3  C   SER K   1       6.746   8.676  10.679  0.00  0.00    +0.000 C 
ATOM      4  O   SER K   1       5.938   8.077   9.964  0.00  0.00    +0.000 OA
ATOM      5  CB  SER K   1       8.639   7.432  11.741  0.00  0.00    +0.000 C 
ATOM      6  OG  SER K   1       9.993   7.040  11.609  0.00  0.00    +0.000 OA
ATOM      7  N   GLY K   2       6.374   9.609  11.538  0.00  0.00    +0.000 N 
ATOM      8  CA  GLY K   2       4.980   9.996  11.638  0.00  0.00    +0.000 C 
ATOM      9  C   GLY K   2       4.473  10.663  10.371  0.00  0.00    +0.000 C 
ATOM     10  O   GLY K   2       3.344  10.416   9.936  0.00  0.00    +0.000 OA
ATOM     11  N   LEU K   3       5.302  11.503   9.774  0.00  0.00    +0.000 N 
ATOM     12  CA  LEU K   3       4.917  12.190   8.549  0.00  0.00    +0.000 C 
ATOM     13  C   LEU K   3       4.767  11.210   7.391  0.00  0.00    +0.000 C 
ATOM     14  O   LEU K   3       3.775  11.251   6.658  0.00  0.00    +0.000 OA
ATOM     15  CB  LEU K   3       5.938  13.275   8.202  0.00  0.00    +0.000 C 
ATOM     16  CG  LEU K   3       5.668  14.082   6.935  0.00  0.00    +0.000 C 
ATOM     17  CD2 LEU K   3       4.363  14.851   7.063  0.00  0.00    +0.000 C 
ATOM     18  CD1 LEU K   3       6.835  15.019   6.643  0.00  0.00    +0.000 C 
ATOM     19  H   SER K   1       8.752  10.191   9.856  0.00  0.00    +0.000 HD
ATOM     20  H   SER K   1      10.021   9.343  10.524  0.00  0.00    +0.000 HD
ATOM     21  H   SER K   1       8.889  10.064  11.511  0.00  0.00    +0.000 HD
ATOM     22  H   SER K   1      10.112   6.566  10.771  0.00  0.00    +0.000 HD
ATOM     23  H   GLY K   2       7.046  10.043  12.112  0.00  0.00    +0.000 HD
ATOM     24  H   LEU K   3       6.192  11.666  10.163  0.00  0.00    +0.000 HD
TER 
REMARK  Name = /data/user_data/xianyang/t3-aimnet-affinity-balanced/L4/Q9GZQ6/pocket.pdb
REMARK                            x       y       z     vdW  Elec       q    Type
REMARK                         _______ _______ _______ _____ _____    ______ ____
ATOM      1  N   GLN L   1       4.338   7.920   7.511  0.00  0.00    +0.000 N 
ATOM      2  CA  GLN L   1       3.254   6.975   7.737  0.00  0.00    +0.000 C 
ATOM      3  C   GLN L   1       1.905   7.594   7.388  0.00  0.00    +0.000 C 
ATOM      4  O   GLN L   1       1.083   6.973   6.711  0.00  0.00    +0.000 OA
ATOM      5  CB  GLN L   1       3.268   6.490   9.187  0.00  0.00    +0.000 C 
ATOM      6  CG  GLN L   1       2.214   5.431   9.487  0.00  0.00    +0.000 C 
ATOM      7  CD  GLN L   1       2.376   4.828  10.871  0.00  0.00    +0.000 C 
ATOM      8  OE1 GLN L   1       3.203   5.265  11.659  0.00  0.00    +0.000 OA
ATOM      9  NE2 GLN L   1       1.582   3.815  11.178  0.00  0.00    +0.000 N 
ATOM     10  N   GLY L   2       1.676   8.814   7.829  0.00  0.00    +0.000 N 
ATOM     11  CA  GLY L   2       0.431   9.485   7.509  0.00  0.00    +0.000 C 
ATOM     12  C   GLY L   2       0.303   9.816   6.033  0.00  0.00    +0.000 C 
ATOM     13  O   GLY L   2      -0.773   9.672   5.447  0.00  0.00    +0.000 OA
ATOM     14  H   GLN L   1       4.317   8.235   6.541  0.00  0.00    +0.000 HD
ATOM     15  H   GLN L   1       5.231   7.465   7.702  0.00  0.00    +0.000 HD
ATOM     16  H   GLN L   1       4.225   8.722   8.132  0.00  0.00    +0.000 HD
ATOM     17  H   GLN L   1       0.926   3.487  10.521  0.00  0.00    +0.000 HD
ATOM     18  H   GLN L   1       1.647   3.390  12.063  0.00  0.00    +0.000 HD
ATOM     19  H   GLY L   2       2.353   9.272   8.378  0.00  0.00    +0.000 HD
TER 
REMARK  Name = /data/user_data/xianyang/t3-aimnet-affinity-balanced/L4/Q9GZQ6/pocket.pdb
REMARK                            x       y       z     vdW  Elec       q    Type
REMARK                         _______ _______ _______ _____ _____    ______ ____
ATOM      1  N   VAL M   1      -0.487   6.511   3.955  0.00  0.00    +0.000 N 
ATOM      2  CA  VAL M   1      -1.873   6.070   4.047  0.00  0.00    +0.000 C 
ATOM      3  C   VAL M   1      -2.795   7.059   3.333  0.00  0.00    +0.000 C 
ATOM      4  O   VAL M   1      -3.726   6.656   2.626  0.00  0.00    +0.000 OA
ATOM      5  CB  VAL M   1      -2.288   5.895   5.524  0.00  0.00    +0.000 C 
ATOM      6  CG1 VAL M   1      -3.749   5.514   5.616  0.00  0.00    +0.000 C 
ATOM      7  CG2 VAL M   1      -1.409   4.844   6.184  0.00  0.00    +0.000 C 
ATOM      8  N   SER M   2      -2.529   8.354   3.509  0.00  0.00    +0.000 N 
ATOM      9  CA  SER M   2      -3.340   9.369   2.851  0.00  0.00    +0.000 C 
ATOM     10  C   SER M   2      -3.196   9.284   1.333  0.00  0.00    +0.000 C 
ATOM     11  O   SER M   2      -4.192   9.336   0.603  0.00  0.00    +0.000 OA
ATOM     12  CB  SER M   2      -2.951  10.767   3.343  0.00  0.00    +0.000 C 
ATOM     13  OG  SER M   2      -3.723  11.762   2.697  0.00  0.00    +0.000 OA
ATOM     14  H   VAL M   1      -0.230   6.621   2.974  0.00  0.00    +0.000 HD
ATOM     15  H   VAL M   1       0.120   5.816   4.390  0.00  0.00    +0.000 HD
ATOM     16  H   VAL M   1      -0.382   7.404   4.437  0.00  0.00    +0.000 HD
ATOM     17  H   SER M   2      -1.780   8.625   4.087  0.00  0.00    +0.000 HD
ATOM     18  H   SER M   2      -4.662  11.621   2.894  0.00  0.00    +0.000 HD
TER 
REMARK  Name = /data/user_data/xianyang/t3-aimnet-affinity-balanced/L4/Q9GZQ6/pocket.pdb
REMARK                            x       y       z     vdW  Elec       q    Type
REMARK                         _______ _______ _______ _____ _____    ______ ____
ATOM      1  N   MET N   1      -0.708  16.055   6.825  0.00  0.00    +0.000 N 
ATOM      2  CA  MET N   1       0.086  15.433   7.876  0.00  0.00    +0.000 C 
ATOM      3  C   MET N   1       1.054  16.392   8.554  0.00  0.00    +0.000 C 
ATOM      4  O   MET N   1       1.747  15.989   9.489  0.00  0.00    +0.000 OA
ATOM      5  CB  MET N   1       0.867  14.242   7.323  0.00  0.00    +0.000 C 
ATOM      6  CG  MET N   1      -0.009  13.099   6.862  0.00  0.00    +0.000 C 
ATOM      7  SD  MET N   1      -1.088  12.522   8.197  0.00  0.00    +0.000 S 
ATOM      8  CE  MET N   1      -2.676  12.547   7.355  0.00  0.00    +0.000 C 
ATOM      9  H   MET N   1      -1.332  15.361   6.414  0.00  0.00    +0.000 HD
ATOM     10  H   MET N   1      -0.088  16.424   6.104  0.00  0.00    +0.000 HD
ATOM     11  H   MET N   1      -1.260  16.816   7.221  0.00  0.00    +0.000 HD
TER 
REMARK  Name = /data/user_data/xianyang/t3-aimnet-affinity-balanced/L4/Q9GZQ6/pocket.pdb
REMARK                            x       y       z     vdW  Elec       q    Type
REMARK                         _______ _______ _______ _____ _____    ______ ____
ATOM      1  N   SER O   1       0.654  16.851  12.566  0.00  0.00    +0.000 N 
ATOM      2  CA  SER O   1       1.187  15.774  13.388  0.00  0.00    +0.000 C 
ATOM      3  C   SER O   1       2.711  15.785  13.395  0.00  0.00    +0.000 C 
ATOM      4  O   SER O   1       3.326  15.480  14.416  0.00  0.00    +0.000 OA
ATOM      5  CB  SER O   1       0.676  14.416  12.896  0.00  0.00    +0.000 C 
ATOM      6  OG  SER O   1       1.054  14.181  11.557  0.00  0.00    +0.000 OA
ATOM      7  H   SER O   1      -0.365  16.818  12.581  0.00  0.00    +0.000 HD
ATOM      8  H   SER O   1       0.984  16.742  11.607  0.00  0.00    +0.000 HD
ATOM      9  H   SER O   1       0.970  17.748  12.934  0.00  0.00    +0.000 HD
ATOM     10  H   SER O   1       2.022  14.177  11.490  0.00  0.00    +0.000 HD
TER 
REMARK  Name = /data/user_data/xianyang/t3-aimnet-affinity-balanced/L4/Q9GZQ6/pocket.pdb
REMARK                            x       y       z     vdW  Elec       q    Type
REMARK                         _______ _______ _______ _____ _____    ______ ____
ATOM      1  N   LEU P   1       5.021  16.286  16.840  0.00  0.00    +0.000 N 
ATOM      2  CA  LEU P   1       5.789  15.128  17.267  0.00  0.00    +0.000 C 
ATOM      3  C   LEU P   1       7.139  15.551  17.825  0.00  0.00    +0.000 C 
ATOM      4  O   LEU P   1       7.821  16.409  17.263  0.00  0.00    +0.000 OA
ATOM      5  CB  LEU P   1       5.994  14.149  16.109  0.00  0.00    +0.000 C 
ATOM      6  CG  LEU P   1       4.827  13.229  15.780  0.00  0.00    +0.000 C 
ATOM      7  CD1 LEU P   1       5.080  12.485  14.481  0.00  0.00    +0.000 C 
ATOM      8  CD2 LEU P   1       4.577  12.251  16.914  0.00  0.00    +0.000 C 
ATOM      9  H   LEU P   1       4.121  15.980  16.470  0.00  0.00    +0.000 HD
ATOM     10  H   LEU P   1       5.535  16.786  16.114  0.00  0.00    +0.000 HD
ATOM     11  H   LEU P   1       4.868  16.905  17.636  0.00  0.00    +0.000 HD
TER 
REMARK  Name = /data/user_data/xianyang/t3-aimnet-affinity-balanced/L4/Q9GZQ6/pocket.pdb
REMARK                            x       y       z     vdW  Elec       q    Type
REMARK                         _______ _______ _______ _____ _____    ______ ____
ATOM      1  N   TRP Q   1       0.551  18.256  21.580  0.00  0.00    +0.000 N 
ATOM      2  CA  TRP Q   1      -0.529  19.182  21.255  0.00  0.00    +0.000 C 
ATOM      3  C   TRP Q   1      -0.707  20.194  22.379  0.00  0.00    +0.000 C 
ATOM      4  O   TRP Q   1      -0.601  19.855  23.560  0.00  0.00    +0.000 OA
ATOM      5  CB  TRP Q   1      -1.837  18.421  21.027  0.00  0.00    +0.000 C 
ATOM      6  CG  TRP Q   1      -1.857  17.552  19.810  0.00  0.00    +0.000 C 
ATOM      7  CD1 TRP Q   1      -1.708  16.198  19.775  0.00  0.00    +0.000 C 
ATOM      8  CD2 TRP Q   1      -2.049  17.964  18.452  0.00  0.00    +0.000 A 
ATOM      9  NE1 TRP Q   1      -1.789  15.744  18.483  0.00  0.00    +0.000 NA
ATOM     10  CE2 TRP Q   1      -1.997  16.805  17.648  0.00  0.00    +0.000 A 
ATOM     11  CE3 TRP Q   1      -2.258  19.203  17.836  0.00  0.00    +0.000 A 
ATOM     12  CZ2 TRP Q   1      -2.150  16.852  16.263  0.00  0.00    +0.000 A 
ATOM     13  CZ3 TRP Q   1      -2.408  19.246  16.458  0.00  0.00    +0.000 A 
ATOM     14  CH2 TRP Q   1      -2.354  18.076  15.687  0.00  0.00    +0.000 A 
ATOM     15  H   TRP Q   1       0.662  17.583  20.821  0.00  0.00    +0.000 HD
ATOM     16  H   TRP Q   1       0.326  17.761  22.443  0.00  0.00    +0.000 HD
ATOM     17  H   TRP Q   1       1.420  18.776  21.702  0.00  0.00    +0.000 HD
TER 
REMARK  Name = /data/user_data/xianyang/t3-aimnet-affinity-balanced/L4/Q9GZQ6/pocket.pdb
REMARK                            x       y       z     vdW  Elec       q    Type
REMARK                         _______ _______ _______ _____ _____    ______ ____
ATOM      1  N   UNK R   1      -5.939  16.859  19.829  0.00  0.00    +0.000 N 
ATOM      2  C   UNK R   1      -5.639  15.538  19.296  0.00  0.00    +0.000 C 
ATOM      3  C   UNK R   1      -6.917  14.790  18.939  0.00  0.00    +0.000 C 
ATOM      4  O   UNK R   1      -6.976  14.101  17.918  0.00  0.00    +0.000 OA
ATOM      5  C   UNK R   1      -4.813  14.724  20.291  0.00  0.00    +0.000 C 
ATOM      6  C   UNK R   1      -4.398  13.362  19.758  0.00  0.00    +0.000 C 
ATOM      7  C   UNK R   1      -3.670  12.540  20.802  0.00  0.00    +0.000 C 
ATOM      8  N   UNK R   1      -3.203  11.267  20.276  0.00  0.00    +0.000 N 
ATOM      9  C   UNK R   1      -3.931  10.155  20.230  0.00  0.00    +0.000 C 
ATOM     10  N   UNK R   1      -5.175  10.151  20.699  0.00  0.00    +0.000 N 
ATOM     11  N   UNK R   1      -3.411   9.045  19.716  0.00  0.00    +0.000 N 
ATOM     12  N   UNK R   1      -9.048   4.830  21.999  0.00  0.00    +0.000 N 
ATOM     13  C   UNK R   1      -8.095   5.474  22.889  0.00  0.00    +0.000 C 
ATOM     14  C   UNK R   1      -8.452   6.944  23.096  0.00  0.00    +0.000 C 
ATOM     15  O   UNK R   1      -8.387   7.460  24.216  0.00  0.00    +0.000 OA
ATOM     16  C   UNK R   1      -6.660   5.333  22.340  0.00  0.00    +0.000 C 
ATOM     17  C   UNK R   1      -6.231   3.866  22.329  0.00  0.00    +0.000 C 
ATOM     18  C   UNK R   1      -5.698   6.170  23.162  0.00  0.00    +0.000 C 
ATOM     19  C   UNK R   1      -6.149   3.242  23.712  0.00  0.00    +0.000 C 
ATOM     20  N   UNK R   2      -8.842   7.627  22.022  0.00  0.00    +0.000 N 
ATOM     21  C   UNK R   2      -9.107   9.059  22.103  0.00  0.00    +0.000 C 
ATOM     22  C   UNK R   2     -10.430   9.378  22.785  0.00  0.00    +0.000 C 
ATOM     23  O   UNK R   2     -10.538  10.383  23.494  0.00  0.00    +0.000 OA
ATOM     24  C   UNK R   2      -9.081   9.686  20.705  0.00  0.00    +0.000 C 
ATOM     25  C   UNK R   2      -7.674   9.775  20.138  0.00  0.00    +0.000 C 
ATOM     26  O   UNK R   1      -6.709   9.749  20.927  0.00  0.00    +0.000 OA
ATOM     27  O   UNK R   2      -7.544   9.894  18.906  0.00  0.00    +0.000 OA
ATOM     28  H   UNK R   1      -6.490  17.383  19.149  0.00  0.00    +0.000 HD
ATOM     29  H   UNK R   1      -5.068  17.356  20.016  0.00  0.00    +0.000 HD
ATOM     30  H   UNK R   1      -6.469  16.764  20.695  0.00  0.00    +0.000 HD
ATOM     31  H   UNK R   1      -2.282  11.226  19.929  0.00  0.00    +0.000 HD
ATOM     32  H   UNK R   1      -5.109  10.900  21.335  0.00  0.00    +0.000 HD
ATOM     33  H   UNK R   1      -2.490   9.048  19.369  0.00  0.00    +0.000 HD
ATOM     34  H   UNK R   1      -3.947   8.220  19.683  0.00  0.00    +0.000 HD
ATOM     35  H   UNK R   1      -8.790   3.851  21.876  0.00  0.00    +0.000 HD
ATOM     36  H   UNK R   1      -9.040   5.300  21.094  0.00  0.00    +0.000 HD
ATOM     37  H   UNK R   1      -9.983   4.887  22.403  0.00  0.00    +0.000 HD
ATOM     38  H   UNK R   2      -8.953   7.160  21.163  0.00  0.00    +0.000 HD
TER 
REMARK  Name = /data/user_data/xianyang/t3-aimnet-affinity-balanced/L4/Q9GZQ6/pocket.pdb
REMARK                            x       y       z     vdW  Elec       q    Type
REMARK                         _______ _______ _______ _____ _____    ______ ____
ATOM      1  N   TYR S   1      -8.220  16.314  15.758  0.00  0.00    +0.000 N 
ATOM      2  CA  TYR S   1      -7.379  15.907  14.640  0.00  0.00    +0.000 C 
ATOM      3  C   TYR S   1      -7.633  14.457  14.258  0.00  0.00    +0.000 C 
ATOM      4  O   TYR S   1      -7.671  14.122  13.073  0.00  0.00    +0.000 OA
ATOM      5  CB  TYR S   1      -5.905  16.128  15.000  0.00  0.00    +0.000 C 
ATOM      6  CG  TYR S   1      -4.942  15.862  13.869  0.00  0.00    +0.000 A 
ATOM      7  CD1 TYR S   1      -5.034  16.555  12.671  0.00  0.00    +0.000 A 
ATOM      8  CD2 TYR S   1      -3.919  14.934  14.019  0.00  0.00    +0.000 A 
ATOM      9  CE1 TYR S   1      -4.138  16.319  11.636  0.00  0.00    +0.000 A 
ATOM     10  CE2 TYR S   1      -3.018  14.695  12.991  0.00  0.00    +0.000 A 
ATOM     11  CZ  TYR S   1      -3.130  15.390  11.808  0.00  0.00    +0.000 A 
ATOM     12  OH  TYR S   1      -2.237  15.151  10.788  0.00  0.00    +0.000 OA
ATOM     13  N   THR S   2      -7.806  13.594  15.254  0.00  0.00    +0.000 N 
ATOM     14  CA  THR S   2      -8.108  12.191  14.977  0.00  0.00    +0.000 C 
ATOM     15  C   THR S   2      -9.438  12.052  14.246  0.00  0.00    +0.000 C 
ATOM     16  O   THR S   2      -9.564  11.261  13.309  0.00  0.00    +0.000 OA
ATOM     17  CB  THR S   2      -8.135  11.384  16.277  0.00  0.00    +0.000 C 
ATOM     18  OG1 THR S   2      -6.850  11.460  16.911  0.00  0.00    +0.000 OA
ATOM     19  CG2 THR S   2      -8.477   9.926  15.993  0.00  0.00    +0.000 C 
ATOM     20  H   TYR S   1      -9.200  16.167  15.517  0.00  0.00    +0.000 HD
ATOM     21  H   TYR S   1      -8.064  17.302  15.959  0.00  0.00    +0.000 HD
ATOM     22  H   TYR S   1      -7.985  15.759  16.580  0.00  0.00    +0.000 HD
ATOM     23  H   TYR S   1      -2.310  15.622   9.981  0.00  0.00    +0.000 HD
ATOM     24  H   THR S   2      -7.730  13.902  16.186  0.00  0.00    +0.000 HD
ATOM     25  H   THR S   2      -6.176  11.088  16.321  0.00  0.00    +0.000 HD
TER 
REMARK  Name = /data/user_data/xianyang/t3-aimnet-affinity-balanced/L4/Q9GZQ6/pocket.pdb
REMARK                            x       y       z     vdW  Elec       q    Type
REMARK                         _______ _______ _______ _____ _____    ______ ____
ATOM      1  N   LEU T   1      -8.970  13.290  10.627  0.00  0.00    +0.000 N 
ATOM      2  CA  LEU T   1      -8.257  12.307   9.822  0.00  0.00    +0.000 C 
ATOM      3  C   LEU T   1      -9.135  11.106   9.505  0.00  0.00    +0.000 C 
ATOM      4  O   LEU T   1      -9.133  10.602   8.378  0.00  0.00    +0.000 OA
ATOM      5  CB  LEU T   1      -6.983  11.850  10.536  0.00  0.00    +0.000 C 
ATOM      6  CG  LEU T   1      -5.851  12.870  10.660  0.00  0.00    +0.000 C 
ATOM      7  CD2 LEU T   1      -4.673  12.262  11.412  0.00  0.00    +0.000 C 
ATOM      8  CD1 LEU T   1      -5.421  13.360   9.285  0.00  0.00    +0.000 C 
ATOM      9  H   LEU T   1      -9.815  13.583  10.136  0.00  0.00    +0.000 HD
ATOM     10  H   LEU T   1      -8.370  14.100  10.784  0.00  0.00    +0.000 HD
ATOM     11  H   LEU T   1      -9.224  12.875  11.524  0.00  0.00    +0.000 HD
TER 
REMARK  Name = /data/user_data/xianyang/t3-aimnet-affinity-balanced/L4/Q9GZQ6/pocket.pdb
REMARK                            x       y       z     vdW  Elec       q    Type
REMARK                         _______ _______ _______ _____ _____    ______ ____
ATOM      1  N   ILE U   1      -9.704  10.834   5.655  0.00  0.00    +0.000 N 
ATOM      2  CA  ILE U   1      -8.740   9.891   5.093  0.00  0.00    +0.000 C 
ATOM      3  C   ILE U   1      -9.290   8.469   5.075  0.00  0.00    +0.000 C 
ATOM      4  O   ILE U   1      -8.723   7.589   4.419  0.00  0.00    +0.000 OA
ATOM      5  CB  ILE U   1      -7.404   9.961   5.860  0.00  0.00    +0.000 C 
ATOM      6  CG1 ILE U   1      -6.852  11.392   5.792  0.00  0.00    +0.000 C 
ATOM      7  CG2 ILE U   1      -6.376   8.989   5.304  0.00  0.00    +0.000 C 
ATOM      8  CD1 ILE U   1      -5.532  11.581   6.508  0.00  0.00    +0.000 C 
ATOM      9  H   ILE U   1     -10.580  10.774   5.136  0.00  0.00    +0.000 HD
ATOM     10  H   ILE U   1      -9.332  11.781   5.587  0.00  0.00    +0.000 HD
ATOM     11  H   ILE U   1      -9.872  10.605   6.635  0.00  0.00    +0.000 HD
TER 
REMARK  Name = /data/user_data/xianyang/t3-aimnet-affinity-balanced/L4/Q9GZQ6/pocket.pdb
REMARK                            x       y       z     vdW  Elec       q    Type
REMARK                         _______ _______ _______ _____ _____    ______ ____
ATOM      1  N   TRP V   1      -7.442  -1.634   7.581  0.00  0.00    +0.000 N 
ATOM      2  CA  TRP V   1      -7.208  -0.417   8.360  0.00  0.00    +0.000 C 
ATOM      3  C   TRP V   1      -8.318  -0.113   9.357  0.00  0.00    +0.000 C 
ATOM      4  O   TRP V   1      -8.126   0.711  10.245  0.00  0.00    +0.000 OA
ATOM      5  CB  TRP V   1      -7.008   0.776   7.424  0.00  0.00    +0.000 C 
ATOM      6  CG  TRP V   1      -5.627   0.836   6.855  0.00  0.00    +0.000 C 
ATOM      7  CD1 TRP V   1      -5.216   0.305   5.664  0.00  0.00    +0.000 C 
ATOM      8  CD2 TRP V   1      -4.473   1.419   7.448  0.00  0.00    +0.000 C 
ATOM      9  NE1 TRP V   1      -3.874   0.540   5.488  0.00  0.00    +0.000 NA
ATOM     10  CE2 TRP V   1      -3.391   1.224   6.560  0.00  0.00    +0.000 C 
ATOM     11  CE3 TRP V   1      -4.246   2.097   8.649  0.00  0.00    +0.000 C 
ATOM     12  CZ2 TRP V   1      -2.110   1.680   6.846  0.00  0.00    +0.000 C 
ATOM     13  CZ3 TRP V   1      -2.970   2.555   8.926  0.00  0.00    +0.000 C 
ATOM     14  CH2 TRP V   1      -1.915   2.345   8.030  0.00  0.00    +0.000 C 
ATOM     15  H   TRP V   1      -6.666  -1.779   6.936  0.00  0.00    +0.000 HD
ATOM     16  H   TRP V   1      -8.309  -1.538   7.053  0.00  0.00    +0.000 HD
ATOM     17  H   TRP V   1      -7.514  -2.433   8.211  0.00  0.00    +0.000 HD
TER 
REMARK  Name = /data/user_data/xianyang/t3-aimnet-affinity-balanced/L4/Q9GZQ6/pocket.pdb
REMARK                            x       y       z     vdW  Elec       q    Type
REMARK                         _______ _______ _______ _____ _____    ______ ____
ATOM      1  N   LEU W   1      -7.409  -0.691  13.162  0.00  0.00    +0.000 N 
ATOM      2  CA  LEU W   1      -6.479   0.301  13.678  0.00  0.00    +0.000 C 
ATOM      3  C   LEU W   1      -7.184   1.626  13.952  0.00  0.00    +0.000 C 
ATOM      4  O   LEU W   1      -6.939   2.265  14.980  0.00  0.00    +0.000 OA
ATOM      5  CB  LEU W   1      -5.320   0.498  12.695  0.00  0.00    +0.000 C 
ATOM      6  CG  LEU W   1      -4.097   1.256  13.206  0.00  0.00    +0.000 C 
ATOM      7  CD2 LEU W   1      -3.598   0.654  14.510  0.00  0.00    +0.000 C 
ATOM      8  CD1 LEU W   1      -3.003   1.249  12.153  0.00  0.00    +0.000 C 
ATOM      9  N   TRP W   2      -8.051   2.048  13.035  0.00  0.00    +0.000 N 
ATOM     10  CA  TRP W   2      -8.822   3.269  13.260  0.00  0.00    +0.000 C 
ATOM     11  C   TRP W   2      -9.773   3.121  14.441  0.00  0.00    +0.000 C 
ATOM     12  O   TRP W   2      -9.972   4.067  15.209  0.00  0.00    +0.000 OA
ATOM     13  CB  TRP W   2      -9.609   3.640  12.000  0.00  0.00    +0.000 C 
ATOM     14  CG  TRP W   2      -8.816   4.365  10.955  0.00  0.00    +0.000 C 
ATOM     15  CD1 TRP W   2      -8.532   3.931   9.691  0.00  0.00    +0.000 C 
ATOM     16  CD2 TRP W   2      -8.220   5.661  11.067  0.00  0.00    +0.000 C 
ATOM     17  NE1 TRP W   2      -7.797   4.869   9.026  0.00  0.00    +0.000 NA
ATOM     18  CE2 TRP W   2      -7.586   5.940   9.835  0.00  0.00    +0.000 C 
ATOM     19  CE3 TRP W   2      -8.158   6.616  12.090  0.00  0.00    +0.000 C 
ATOM     20  CZ2 TRP W   2      -6.905   7.137   9.613  0.00  0.00    +0.000 C 
ATOM     21  CZ3 TRP W   2      -7.478   7.797  11.859  0.00  0.00    +0.000 C 
ATOM     22  CH2 TRP W   2      -6.867   8.047  10.628  0.00  0.00    +0.000 C 
ATOM     23  H   LEU W   1      -6.912  -1.565  12.988  0.00  0.00    +0.000 HD
ATOM     24  H   LEU W   1      -7.818  -0.353  12.291  0.00  0.00    +0.000 HD
ATOM     25  H   LEU W   1      -8.149  -0.851  13.845  0.00  0.00    +0.000 HD
ATOM     26  H   TRP W   2      -8.173   1.536  12.203  0.00  0.00    +0.000 HD
TER 
REMARK  Name = /data/user_data/xianyang/t3-aimnet-affinity-balanced/L4/Q9GZQ6/pocket.pdb
REMARK                            x       y       z     vdW  Elec       q    Type
REMARK                         _______ _______ _______ _____ _____    ______ ____
ATOM      1  N   LEU X   1      -7.752   3.554  17.560  0.00  0.00    +0.000 N 
ATOM      2  CA  LEU X   1      -7.385   4.951  17.753  0.00  0.00    +0.000 C 
ATOM      3  C   LEU X   1      -8.550   5.748  18.323  0.00  0.00    +0.000 C 
ATOM      4  O   LEU X   1      -8.366   6.572  19.222  0.00  0.00    +0.000 OA
ATOM      5  CB  LEU X   1      -6.915   5.568  16.431  0.00  0.00    +0.000 C 
ATOM      6  CG  LEU X   1      -5.506   5.207  15.981  0.00  0.00    +0.000 C 
ATOM      7  CD1 LEU X   1      -5.246   5.724  14.577  0.00  0.00    +0.000 C 
ATOM      8  CD2 LEU X   1      -4.476   5.760  16.952  0.00  0.00    +0.000 C 
ATOM      9  H   LEU X   1      -6.956   3.043  17.178  0.00  0.00    +0.000 HD
ATOM     10  H   LEU X   1      -8.537   3.495  16.911  0.00  0.00    +0.000 HD
ATOM     11  H   LEU X   1      -8.020   3.146  18.456  0.00  0.00    +0.000 HD
TER 
REMARK  Name = /data/user_data/xianyang/t3-aimnet-affinity-balanced/L4/Q9GZQ6/pocket.pdb
REMARK                            x       y       z     vdW  Elec       q    Type
REMARK                         _______ _______ _______ _____ _____    ______ ____
ATOM      1  N   VAL Y   1      -4.784  -3.247  25.226  0.00  0.00    +0.000 N 
ATOM      2  CA  VAL Y   1      -4.956  -2.650  23.908  0.00  0.00    +0.000 C 
ATOM      3  C   VAL Y   1      -3.614  -2.272  23.295  0.00  0.00    +0.000 C 
ATOM      4  O   VAL Y   1      -3.342  -2.567  22.125  0.00  0.00    +0.000 OA
ATOM      5  CB  VAL Y   1      -5.886  -1.421  23.989  0.00  0.00    +0.000 C 
ATOM      6  CG1 VAL Y   1      -5.857  -0.637  22.681  0.00  0.00    +0.000 C 
ATOM      7  CG2 VAL Y   1      -7.305  -1.864  24.308  0.00  0.00    +0.000 C 
ATOM      8  N   THR Y   2      -2.753  -1.632  24.073  0.00  0.00    +0.000 N 
ATOM      9  CA  THR Y   2      -1.503  -1.105  23.536  0.00  0.00    +0.000 C 
ATOM     10  C   THR Y   2      -0.436  -2.179  23.360  0.00  0.00    +0.000 C 
ATOM     11  O   THR Y   2       0.434  -2.041  22.492  0.00  0.00    +0.000 OA
ATOM     12  CB  THR Y   2      -0.958   0.006  24.437  0.00  0.00    +0.000 C 
ATOM     13  OG1 THR Y   2      -0.756  -0.502  25.758  0.00  0.00    +0.000 OA
ATOM     14  CG2 THR Y   2      -1.945   1.167  24.495  0.00  0.00    +0.000 C 
ATOM     15  N   VAL Y   3      -0.476  -3.242  24.165  0.00  0.00    +0.000 N 
ATOM     16  CA  VAL Y   3       0.558  -4.269  24.102  0.00  0.00    +0.000 C 
ATOM     17  C   VAL Y   3       0.207  -5.360  23.094  0.00  0.00    +0.000 C 
ATOM     18  O   VAL Y   3       1.101  -5.926  22.452  0.00  0.00    +0.000 OA
ATOM     19  CB  VAL Y   3       0.813  -4.872  25.497  0.00  0.00    +0.000 C 
ATOM     20  CG1 VAL Y   3       1.768  -6.050  25.420  0.00  0.00    +0.000 C 
ATOM     21  CG2 VAL Y   3       1.382  -3.803  26.420  0.00  0.00    +0.000 C 
ATOM     22  H   VAL Y   1      -4.168  -4.057  25.155  0.00  0.00    +0.000 HD
ATOM     23  H   VAL Y   1      -5.691  -3.541  25.587  0.00  0.00    +0.000 HD
ATOM     24  H   VAL Y   1      -4.372  -2.561  25.859  0.00  0.00    +0.000 HD
ATOM     25  H   THR Y   2      -2.960  -1.510  25.028  0.00  0.00    +0.000 HD
ATOM     26  H   THR Y   2      -1.602  -0.813  26.118  0.00  0.00    +0.000 HD
ATOM     27  H   VAL Y   3      -1.214  -3.335  24.811  0.00  0.00    +0.000 HD
TER 
REMARK  Name = /data/user_data/xianyang/t3-aimnet-affinity-balanced/L4/Q9GZQ6/pocket.pdb
REMARK                            x       y       z     vdW  Elec       q    Type
REMARK                         _______ _______ _______ _____ _____    ______ ____
ATOM      1  N   PHE Z   1      -2.944  -3.297  19.437  0.00  0.00    +0.000 N 
ATOM      2  CA  PHE Z   1      -2.325  -2.410  18.461  0.00  0.00    +0.000 C 
ATOM      3  C   PHE Z   1      -1.297  -3.123  17.575  0.00  0.00    +0.000 C 
ATOM      4  O   PHE Z   1      -1.264  -2.877  16.364  0.00  0.00    +0.000 OA
ATOM      5  CB  PHE Z   1      -1.684  -1.204  19.151  0.00  0.00    +0.000 C 
ATOM      6  CG  PHE Z   1      -2.563   0.016  19.186  0.00  0.00    +0.000 A 
ATOM      7  CD2 PHE Z   1      -3.313   0.320  20.306  0.00  0.00    +0.000 A 
ATOM      8  CD1 PHE Z   1      -2.635   0.860  18.091  0.00  0.00    +0.000 A 
ATOM      9  CE2 PHE Z   1      -4.125   1.442  20.337  0.00  0.00    +0.000 A 
ATOM     10  CE1 PHE Z   1      -3.448   1.987  18.111  0.00  0.00    +0.000 A 
ATOM     11  CZ  PHE Z   1      -4.191   2.278  19.234  0.00  0.00    +0.000 A 
ATOM     12  N   PRO Z   2      -0.426  -3.998  18.122  0.00  0.00    +0.000 N 
ATOM     13  CA  PRO Z   2       0.484  -4.732  17.235  0.00  0.00    +0.000 C 
ATOM     14  C   PRO Z   2      -0.243  -5.584  16.206  0.00  0.00    +0.000 C 
ATOM     15  O   PRO Z   2       0.176  -5.638  15.042  0.00  0.00    +0.000 OA
ATOM     16  CB  PRO Z   2       1.302  -5.593  18.206  0.00  0.00    +0.000 C 
ATOM     17  CG  PRO Z   2       1.276  -4.829  19.480  0.00  0.00    +0.000 C 
ATOM     18  CD  PRO Z   2      -0.081  -4.200  19.540  0.00  0.00    +0.000 C 
ATOM     19  H   PHE Z   1      -3.364  -4.092  18.956  0.00  0.00    +0.000 HD
ATOM     20  H   PHE Z   1      -3.666  -2.789  19.948  0.00  0.00    +0.000 HD
ATOM     21  H   PHE Z   1      -2.236  -3.631  20.091  0.00  0.00    +0.000 HD
TER 
REMARK  Name = /data/user_data/xianyang/t3-aimnet-affinity-balanced/L4/Q9GZQ6/pocket.pdb
REMARK                            x       y       z     vdW  Elec       q    Type
REMARK                         _______ _______ _______ _____ _____    ______ ____
ATOM      1  N   HIS [   1      -1.795  -3.173  13.640  0.00  0.00    +0.000 N 
ATOM      2  CA  HIS [   1      -0.753  -2.677  12.751  0.00  0.00    +0.000 C 
ATOM      3  C   HIS [   1      -0.334  -3.733  11.739  0.00  0.00    +0.000 C 
ATOM      4  O   HIS [   1      -0.128  -3.438  10.564  0.00  0.00    +0.000 OA
ATOM      5  CB  HIS [   1       0.462  -2.212  13.547  0.00  0.00    +0.000 C 
ATOM      6  CG  HIS [   1       0.389  -0.798  14.017  0.00  0.00    +0.000 A 
ATOM      7  ND1 HIS [   1       0.418  -0.444  15.346  0.00  0.00    +0.000 N 
ATOM      8  CD2 HIS [   1       0.296   0.353  13.315  0.00  0.00    +0.000 A 
ATOM      9  CE1 HIS [   1       0.350   0.869  15.442  0.00  0.00    +0.000 A 
ATOM     10  NE2 HIS [   1       0.273   1.384  14.221  0.00  0.00    +0.000 NA
ATOM     11  H   HIS [   1      -2.596  -3.478  13.088  0.00  0.00    +0.000 HD
ATOM     12  H   HIS [   1      -2.083  -2.428  14.275  0.00  0.00    +0.000 HD
ATOM     13  H   HIS [   1      -1.435  -3.960  14.180  0.00  0.00    +0.000 HD
ATOM     14  H   HIS [   1       0.480  -1.070  16.103  0.00  0.00    +0.000 HD
TER 
