REMARK  Name = /data/user_data/xianyang/t3-aimnet-affinity-balanced/L4/Q99705/pocket.pdb
REMARK                            x       y       z     vdW  Elec       q    Type
REMARK                         _______ _______ _______ _____ _____    ______ ____
ATOM      1  N   PHE A   1     129.523 153.295 109.069  0.00  0.00    +0.000 N 
ATOM      2  CA  PHE A   1     130.798 152.623 109.299  0.00  0.00    +0.000 C 
ATOM      3  C   PHE A   1     131.477 153.124 110.566  0.00  0.00    +0.000 C 
ATOM      4  O   PHE A   1     132.142 152.346 111.259  0.00  0.00    +0.000 OA
ATOM      5  CB  PHE A   1     131.714 152.812 108.090  0.00  0.00    +0.000 C 
ATOM      6  CG  PHE A   1     131.158 152.245 106.816  0.00  0.00    +0.000 A 
ATOM      7  CD2 PHE A   1     130.429 151.068 106.827  0.00  0.00    +0.000 A 
ATOM      8  CD1 PHE A   1     131.356 152.893 105.609  0.00  0.00    +0.000 A 
ATOM      9  CE2 PHE A   1     129.913 150.544 105.657  0.00  0.00    +0.000 A 
ATOM     10  CE1 PHE A   1     130.842 152.376 104.435  0.00  0.00    +0.000 A 
ATOM     11  CZ  PHE A   1     130.119 151.199 104.460  0.00  0.00    +0.000 A 
ATOM     12  H   PHE A   1     129.098 152.935 108.214  0.00  0.00    +0.000 HD
ATOM     13  H   PHE A   1     129.680 154.298 108.974  0.00  0.00    +0.000 HD
ATOM     14  H   PHE A   1     128.900 153.121 109.858  0.00  0.00    +0.000 HD
TER 
REMARK  Name = /data/user_data/xianyang/t3-aimnet-affinity-balanced/L4/Q99705/pocket.pdb
REMARK                            x       y       z     vdW  Elec       q    Type
REMARK                         _______ _______ _______ _____ _____    ______ ____
ATOM      1  N   VAL B   1     142.709 140.378 114.487  0.00  0.00    +0.000 N 
ATOM      2  CA  VAL B   1     142.336 140.595 113.091  0.00  0.00    +0.000 C 
ATOM      3  C   VAL B   1     141.289 141.696 112.986  0.00  0.00    +0.000 C 
ATOM      4  O   VAL B   1     141.379 142.586 112.132  0.00  0.00    +0.000 OA
ATOM      5  CB  VAL B   1     141.840 139.283 112.457  0.00  0.00    +0.000 C 
ATOM      6  CG1 VAL B   1     141.616 139.470 110.966  0.00  0.00    +0.000 C 
ATOM      7  CG2 VAL B   1     142.831 138.167 112.716  0.00  0.00    +0.000 C 
ATOM      8  N   ASP B   2     140.274 141.648 113.852  0.00  0.00    +0.000 N 
ATOM      9  CA  ASP B   2     139.319 142.749 113.924  0.00  0.00    +0.000 C 
ATOM     10  C   ASP B   2     140.002 144.038 114.359  0.00  0.00    +0.000 C 
ATOM     11  O   ASP B   2     139.703 145.117 113.835  0.00  0.00    +0.000 OA
ATOM     12  CB  ASP B   2     138.177 142.395 114.877  0.00  0.00    +0.000 C 
ATOM     13  CG  ASP B   2     137.223 141.375 114.289  0.00  0.00    +0.000 C 
ATOM     14  OD1 ASP B   2     137.369 141.041 113.095  0.00  0.00    +0.000 OA
ATOM     15  OD2 ASP B   2     136.325 140.909 115.022  0.00  0.00    +0.000 OA
ATOM     16  H   VAL B   1     143.410 139.639 114.541  0.00  0.00    +0.000 HD
ATOM     17  H   VAL B   1     141.884 140.104 115.021  0.00  0.00    +0.000 HD
ATOM     18  H   VAL B   1     143.093 141.240 114.874  0.00  0.00    +0.000 HD
ATOM     19  H   ASP B   2     140.170 140.868 114.443  0.00  0.00    +0.000 HD
TER 
REMARK  Name = /data/user_data/xianyang/t3-aimnet-affinity-balanced/L4/Q99705/pocket.pdb
REMARK                            x       y       z     vdW  Elec       q    Type
REMARK                         _______ _______ _______ _____ _____    ______ ____
ATOM      1  N   PHE C   1     142.161 145.378 111.403  0.00  0.00    +0.000 N 
ATOM      2  CA  PHE C   1     141.306 145.849 110.320  0.00  0.00    +0.000 C 
ATOM      3  C   PHE C   1     140.636 147.169 110.677  0.00  0.00    +0.000 C 
ATOM      4  O   PHE C   1     140.568 148.084 109.848  0.00  0.00    +0.000 OA
ATOM      5  CB  PHE C   1     140.254 144.795 109.983  0.00  0.00    +0.000 C 
ATOM      6  CG  PHE C   1     139.114 145.324 109.166  0.00  0.00    +0.000 A 
ATOM      7  CD1 PHE C   1     139.306 145.691 107.845  0.00  0.00    +0.000 A 
ATOM      8  CD2 PHE C   1     137.852 145.457 109.718  0.00  0.00    +0.000 A 
ATOM      9  CE1 PHE C   1     138.260 146.181 107.091  0.00  0.00    +0.000 A 
ATOM     10  CE2 PHE C   1     136.802 145.944 108.968  0.00  0.00    +0.000 A 
ATOM     11  CZ  PHE C   1     137.007 146.307 107.653  0.00  0.00    +0.000 A 
ATOM     12  N   LEU C   2     140.128 147.285 111.905  0.00  0.00    +0.000 N 
ATOM     13  CA  LEU C   2     139.435 148.501 112.310  0.00  0.00    +0.000 C 
ATOM     14  C   LEU C   2     140.381 149.680 112.492  0.00  0.00    +0.000 C 
ATOM     15  O   LEU C   2     139.930 150.829 112.439  0.00  0.00    +0.000 OA
ATOM     16  CB  LEU C   2     138.647 148.254 113.595  0.00  0.00    +0.000 C 
ATOM     17  CG  LEU C   2     137.442 147.327 113.437  0.00  0.00    +0.000 C 
ATOM     18  CD2 LEU C   2     136.710 147.172 114.756  0.00  0.00    +0.000 C 
ATOM     19  CD1 LEU C   2     136.506 147.840 112.353  0.00  0.00    +0.000 C 
ATOM     20  H   PHE C   1     142.594 144.495 111.134  0.00  0.00    +0.000 HD
ATOM     21  H   PHE C   1     141.600 145.240 112.244  0.00  0.00    +0.000 HD
ATOM     22  H   PHE C   1     142.887 146.070 111.589  0.00  0.00    +0.000 HD
ATOM     23  H   LEU C   2     140.222 146.542 112.544  0.00  0.00    +0.000 HD
TER 
REMARK  Name = /data/user_data/xianyang/t3-aimnet-affinity-balanced/L4/Q99705/pocket.pdb
REMARK                            x       y       z     vdW  Elec       q    Type
REMARK                         _______ _______ _______ _____ _____    ______ ____
ATOM      1  N   MET D   1     140.287 151.193 109.310  0.00  0.00    +0.000 N 
ATOM      2  CA  MET D   1     138.930 151.556 108.905  0.00  0.00    +0.000 C 
ATOM      3  C   MET D   1     138.730 153.059 108.751  0.00  0.00    +0.000 C 
ATOM      4  O   MET D   1     138.214 153.481 107.702  0.00  0.00    +0.000 OA
ATOM      5  CB  MET D   1     137.923 150.961 109.895  0.00  0.00    +0.000 C 
ATOM      6  CG  MET D   1     136.516 151.522 109.763  0.00  0.00    +0.000 C 
ATOM      7  SD  MET D   1     135.659 150.956 108.282  0.00  0.00    +0.000 S 
ATOM      8  CE  MET D   1     135.324 149.253 108.723  0.00  0.00    +0.000 C 
ATOM      9  H   MET D   1     140.956 151.590 108.650  0.00  0.00    +0.000 HD
ATOM     10  H   MET D   1     140.379 150.177 109.318  0.00  0.00    +0.000 HD
ATOM     11  H   MET D   1     140.472 151.559 110.244  0.00  0.00    +0.000 HD
TER 
REMARK  Name = /data/user_data/xianyang/t3-aimnet-affinity-balanced/L4/Q99705/pocket.pdb
REMARK                            x       y       z     vdW  Elec       q    Type
REMARK                         _______ _______ _______ _____ _____    ______ ____
ATOM      1  N   MET E   1     140.057 154.435 105.457  0.00  0.00    +0.000 N 
ATOM      2  CA  MET E   1     139.217 154.091 104.316  0.00  0.00    +0.000 C 
ATOM      3  C   MET E   1     137.910 154.872 104.328  0.00  0.00    +0.000 C 
ATOM      4  O   MET E   1     137.346 155.151 103.264  0.00  0.00    +0.000 OA
ATOM      5  CB  MET E   1     138.943 152.588 104.301  0.00  0.00    +0.000 C 
ATOM      6  CG  MET E   1     140.196 151.731 104.313  0.00  0.00    +0.000 C 
ATOM      7  SD  MET E   1     139.842 149.964 104.282  0.00  0.00    +0.000 S 
ATOM      8  CE  MET E   1     139.063 149.802 102.678  0.00  0.00    +0.000 C 
ATOM      9  N   ILE E   2     137.411 155.223 105.516  0.00  0.00    +0.000 N 
ATOM     10  CA  ILE E   2     136.179 156.002 105.609  0.00  0.00    +0.000 C 
ATOM     11  C   ILE E   2     136.373 157.378 104.987  0.00  0.00    +0.000 C 
ATOM     12  O   ILE E   2     135.502 157.878 104.263  0.00  0.00    +0.000 OA
ATOM     13  CB  ILE E   2     135.719 156.104 107.076  0.00  0.00    +0.000 C 
ATOM     14  CG1 ILE E   2     135.290 154.733 107.601  0.00  0.00    +0.000 C 
ATOM     15  CG2 ILE E   2     134.583 157.105 107.214  0.00  0.00    +0.000 C 
ATOM     16  CD1 ILE E   2     134.815 154.754 109.038  0.00  0.00    +0.000 C 
ATOM     17  H   MET E   1     140.922 153.895 105.418  0.00  0.00    +0.000 HD
ATOM     18  H   MET E   1     139.561 154.220 106.322  0.00  0.00    +0.000 HD
ATOM     19  H   MET E   1     140.276 155.431 105.430  0.00  0.00    +0.000 HD
ATOM     20  H   ILE E   2     137.879 154.953 106.339  0.00  0.00    +0.000 HD
TER 
REMARK  Name = /data/user_data/xianyang/t3-aimnet-affinity-balanced/L4/Q99705/pocket.pdb
REMARK                            x       y       z     vdW  Elec       q    Type
REMARK                         _______ _______ _______ _____ _____    ______ ____
ATOM      1  N   GLN F   1     138.281 158.255 102.591  0.00  0.00    +0.000 N 
ATOM      2  CA  GLN F   1     138.238 158.142 101.137  0.00  0.00    +0.000 C 
ATOM      3  C   GLN F   1     136.803 158.156 100.630  0.00  0.00    +0.000 C 
ATOM      4  O   GLN F   1     136.496 158.809  99.625  0.00  0.00    +0.000 OA
ATOM      5  CB  GLN F   1     138.954 156.867 100.689  0.00  0.00    +0.000 C 
ATOM      6  CG  GLN F   1     138.933 156.637  99.187  0.00  0.00    +0.000 C 
ATOM      7  CD  GLN F   1     139.555 155.312  98.792  0.00  0.00    +0.000 C 
ATOM      8  OE1 GLN F   1     139.680 155.000  97.608  0.00  0.00    +0.000 OA
ATOM      9  NE2 GLN F   1     139.947 154.523  99.785  0.00  0.00    +0.000 N 
ATOM     10  N   LEU F   2     135.908 157.436 101.311  0.00  0.00    +0.000 N 
ATOM     11  CA  LEU F   2     134.494 157.487 100.958  0.00  0.00    +0.000 C 
ATOM     12  C   LEU F   2     133.923 158.881 101.181  0.00  0.00    +0.000 C 
ATOM     13  O   LEU F   2     133.087 159.352 100.400  0.00  0.00    +0.000 OA
ATOM     14  CB  LEU F   2     133.715 156.449 101.765  0.00  0.00    +0.000 C 
ATOM     15  CG  LEU F   2     132.204 156.395 101.536  0.00  0.00    +0.000 C 
ATOM     16  CD1 LEU F   2     131.892 156.147 100.070  0.00  0.00    +0.000 C 
ATOM     17  CD2 LEU F   2     131.574 155.325 102.411  0.00  0.00    +0.000 C 
ATOM     18  H   GLN F   1     137.801 159.108 102.880  0.00  0.00    +0.000 HD
ATOM     19  H   GLN F   1     139.252 158.289 102.901  0.00  0.00    +0.000 HD
ATOM     20  H   GLN F   1     137.819 157.447 103.009  0.00  0.00    +0.000 HD
ATOM     21  H   GLN F   1     140.358 153.650  99.588  0.00  0.00    +0.000 HD
ATOM     22  H   GLN F   1     139.827 154.811 100.719  0.00  0.00    +0.000 HD
ATOM     23  H   LEU F   2     136.205 156.866 102.057  0.00  0.00    +0.000 HD
TER 
REMARK  Name = /data/user_data/xianyang/t3-aimnet-affinity-balanced/L4/Q99705/pocket.pdb
REMARK                            x       y       z     vdW  Elec       q    Type
REMARK                         _______ _______ _______ _____ _____    ______ ____
ATOM      1  N   ASP G   1     142.941 145.333 104.699  0.00  0.00    +0.000 N 
ATOM      2  CA  ASP G   1     141.512 145.061 104.594  0.00  0.00    +0.000 C 
ATOM      3  C   ASP G   1     141.256 143.770 103.830  0.00  0.00    +0.000 C 
ATOM      4  O   ASP G   1     140.425 142.950 104.239  0.00  0.00    +0.000 OA
ATOM      5  CB  ASP G   1     140.797 146.232 103.921  0.00  0.00    +0.000 C 
ATOM      6  CG  ASP G   1     139.461 145.831 103.324  0.00  0.00    +0.000 C 
ATOM      7  OD2 ASP G   1     138.558 145.434 104.088  0.00  0.00    +0.000 OA
ATOM      8  OD1 ASP G   1     139.317 145.910 102.086  0.00  0.00    +0.000 OA
ATOM      9  N   ALA G   2     141.959 143.571 102.713  0.00  0.00    +0.000 N 
ATOM     10  CA  ALA G   2     141.828 142.325 101.972  0.00  0.00    +0.000 C 
ATOM     11  C   ALA G   2     142.454 141.150 102.709  0.00  0.00    +0.000 C 
ATOM     12  O   ALA G   2     142.130 139.998 102.401  0.00  0.00    +0.000 OA
ATOM     13  CB  ALA G   2     142.459 142.466 100.586  0.00  0.00    +0.000 C 
ATOM     14  H   ASP G   1     143.405 144.544 105.149  0.00  0.00    +0.000 HD
ATOM     15  H   ASP G   1     143.087 146.176 105.255  0.00  0.00    +0.000 HD
ATOM     16  H   ASP G   1     143.331 145.469 103.766  0.00  0.00    +0.000 HD
ATOM     17  H   ALA G   2     142.570 144.271 102.388  0.00  0.00    +0.000 HD
TER 
REMARK  Name = /data/user_data/xianyang/t3-aimnet-affinity-balanced/L4/Q99705/pocket.pdb
REMARK                            x       y       z     vdW  Elec       q    Type
REMARK                         _______ _______ _______ _____ _____    ______ ____
ATOM      1  N   SER H   1     142.004 140.677 105.957  0.00  0.00    +0.000 N 
ATOM      2  CA  SER H   1     141.123 140.309 107.061  0.00  0.00    +0.000 C 
ATOM      3  C   SER H   1     140.239 139.123 106.702  0.00  0.00    +0.000 C 
ATOM      4  O   SER H   1     140.053 138.211 107.517  0.00  0.00    +0.000 OA
ATOM      5  CB  SER H   1     140.272 141.510 107.466  0.00  0.00    +0.000 C 
ATOM      6  OG  SER H   1     141.089 142.619 107.795  0.00  0.00    +0.000 OA
ATOM      7  N   GLN H   2     139.677 139.118 105.490  0.00  0.00    +0.000 N 
ATOM      8  CA  GLN H   2     138.823 138.007 105.082  0.00  0.00    +0.000 C 
ATOM      9  C   GLN H   2     139.593 136.695 105.057  0.00  0.00    +0.000 C 
ATOM     10  O   GLN H   2     139.080 135.656 105.489  0.00  0.00    +0.000 OA
ATOM     11  CB  GLN H   2     138.204 138.292 103.714  0.00  0.00    +0.000 C 
ATOM     12  CG  GLN H   2     139.182 138.783 102.666  0.00  0.00    +0.000 C 
ATOM     13  CD  GLN H   2     138.513 139.066 101.336  0.00  0.00    +0.000 C 
ATOM     14  OE1 GLN H   2     137.370 138.672 101.108  0.00  0.00    +0.000 OA
ATOM     15  NE2 GLN H   2     139.224 139.755 100.451  0.00  0.00    +0.000 N 
ATOM     16  H   SER H   1     142.570 139.871 105.691  0.00  0.00    +0.000 HD
ATOM     17  H   SER H   1     142.615 141.440 106.249  0.00  0.00    +0.000 HD
ATOM     18  H   SER H   1     141.443 140.977 105.160  0.00  0.00    +0.000 HD
ATOM     19  H   SER H   1     141.663 142.388 108.542  0.00  0.00    +0.000 HD
ATOM     20  H   GLN H   2     139.839 139.866 104.870  0.00  0.00    +0.000 HD
ATOM     21  H   GLN H   2     138.840 139.968  99.570  0.00  0.00    +0.000 HD
ATOM     22  H   GLN H   2     140.135 140.053 100.676  0.00  0.00    +0.000 HD
TER 
REMARK  Name = /data/user_data/xianyang/t3-aimnet-affinity-balanced/L4/Q99705/pocket.pdb
REMARK                            x       y       z     vdW  Elec       q    Type
REMARK                         _______ _______ _______ _____ _____    ______ ____
ATOM      1  N   SER I   1     140.711 135.911 108.975  0.00  0.00    +0.000 N 
ATOM      2  CA  SER I   1     139.628 135.523 109.875  0.00  0.00    +0.000 C 
ATOM      3  CB  SER I   1     139.115 134.126 109.551  0.00  0.00    +0.000 C 
ATOM      4  OG  SER I   1     138.925 133.297 110.448  0.00  0.00    +0.000 OA
ATOM      5  C   SER I   1     138.492 136.542 109.803  0.00  0.00    +0.000 C 
ATOM      6  O   SER I   1     138.899 137.792 110.327  0.00  0.00    +0.000 OA
ATOM      7  H   SER I   1     141.463 135.224 109.032  0.00  0.00    +0.000 HD
ATOM      8  H   SER I   1     141.067 136.828 109.247  0.00  0.00    +0.000 HD
ATOM      9  H   SER I   1     140.360 135.952 108.018  0.00  0.00    +0.000 HD
ATOM     10  H   SER I   1     139.151 137.686 111.258  0.00  0.00    +0.000 HD
TER 
REMARK  Name = /data/user_data/xianyang/t3-aimnet-affinity-balanced/L4/Q99705/pocket.pdb
REMARK                            x       y       z     vdW  Elec       q    Type
REMARK                         _______ _______ _______ _____ _____    ______ ____
ATOM      1  N   GLN J   1     139.134 135.409  95.304  0.00  0.00    +0.000 N 
ATOM      2  CA  GLN J   1     138.828 135.765  96.686  0.00  0.00    +0.000 C 
ATOM      3  C   GLN J   1     137.667 134.935  97.219  0.00  0.00    +0.000 C 
ATOM      4  O   GLN J   1     137.736 134.393  98.328  0.00  0.00    +0.000 OA
ATOM      5  CB  GLN J   1     138.514 137.257  96.793  0.00  0.00    +0.000 C 
ATOM      6  CG  GLN J   1     139.691 138.166  96.491  0.00  0.00    +0.000 C 
ATOM      7  CD  GLN J   1     139.396 139.619  96.808  0.00  0.00    +0.000 C 
ATOM      8  OE1 GLN J   1     140.205 140.503  96.530  0.00  0.00    +0.000 OA
ATOM      9  NE2 GLN J   1     138.233 139.871  97.397  0.00  0.00    +0.000 N 
ATOM     10  H   GLN J   1     139.913 135.977  94.971  0.00  0.00    +0.000 HD
ATOM     11  H   GLN J   1     138.315 135.579  94.720  0.00  0.00    +0.000 HD
ATOM     12  H   GLN J   1     139.388 134.422  95.255  0.00  0.00    +0.000 HD
ATOM     13  H   GLN J   1     137.615 139.133  97.602  0.00  0.00    +0.000 HD
ATOM     14  H   GLN J   1     137.989 140.796  97.629  0.00  0.00    +0.000 HD
TER 
REMARK  Name = /data/user_data/xianyang/t3-aimnet-affinity-balanced/L4/Q99705/pocket.pdb
REMARK                            x       y       z     vdW  Elec       q    Type
REMARK                         _______ _______ _______ _____ _____    ______ ____
ATOM      1  N   PHE K   1     129.896 134.740 110.784  0.00  0.00    +0.000 N 
ATOM      2  CA  PHE K   1     130.747 135.281 109.730  0.00  0.00    +0.000 C 
ATOM      3  C   PHE K   1     130.261 134.861 108.348  0.00  0.00    +0.000 C 
ATOM      4  O   PHE K   1     130.202 135.683 107.427  0.00  0.00    +0.000 OA
ATOM      5  CB  PHE K   1     132.195 134.841 109.945  0.00  0.00    +0.000 C 
ATOM      6  CG  PHE K   1     133.182 135.575 109.088  0.00  0.00    +0.000 A 
ATOM      7  CD1 PHE K   1     133.470 135.135 107.807  0.00  0.00    +0.000 A 
ATOM      8  CD2 PHE K   1     133.818 136.710 109.561  0.00  0.00    +0.000 A 
ATOM      9  CE1 PHE K   1     134.372 135.813 107.016  0.00  0.00    +0.000 A 
ATOM     10  CE2 PHE K   1     134.724 137.390 108.774  0.00  0.00    +0.000 A 
ATOM     11  CZ  PHE K   1     135.002 136.940 107.500  0.00  0.00    +0.000 A 
ATOM     12  H   PHE K   1     128.933 135.040 110.631  0.00  0.00    +0.000 HD
ATOM     13  H   PHE K   1     130.218 135.081 111.690  0.00  0.00    +0.000 HD
ATOM     14  H   PHE K   1     129.942 133.721 110.768  0.00  0.00    +0.000 HD
TER 
REMARK  Name = /data/user_data/xianyang/t3-aimnet-affinity-balanced/L4/Q99705/pocket.pdb
REMARK                            x       y       z     vdW  Elec       q    Type
REMARK                         _______ _______ _______ _____ _____    ______ ____
ATOM      1  N   TRP L   1     128.372 137.825 105.583  0.00  0.00    +0.000 N 
ATOM      2  CA  TRP L   1     129.028 138.048 104.303  0.00  0.00    +0.000 C 
ATOM      3  C   TRP L   1     128.407 137.255 103.162  0.00  0.00    +0.000 C 
ATOM      4  O   TRP L   1     128.834 137.415 102.014  0.00  0.00    +0.000 OA
ATOM      5  CB  TRP L   1     130.516 137.707 104.407  0.00  0.00    +0.000 C 
ATOM      6  CG  TRP L   1     131.306 138.738 105.133  0.00  0.00    +0.000 C 
ATOM      7  CD1 TRP L   1     131.864 138.624 106.372  0.00  0.00    +0.000 C 
ATOM      8  CD2 TRP L   1     131.619 140.053 104.669  0.00  0.00    +0.000 A 
ATOM      9  NE1 TRP L   1     132.512 139.788 106.706  0.00  0.00    +0.000 NA
ATOM     10  CE2 TRP L   1     132.374 140.682 105.677  0.00  0.00    +0.000 A 
ATOM     11  CE3 TRP L   1     131.335 140.759 103.498  0.00  0.00    +0.000 A 
ATOM     12  CZ2 TRP L   1     132.853 141.981 105.546  0.00  0.00    +0.000 A 
ATOM     13  CZ3 TRP L   1     131.807 142.049 103.372  0.00  0.00    +0.000 A 
ATOM     14  CH2 TRP L   1     132.557 142.648 104.390  0.00  0.00    +0.000 A 
ATOM     15  H   TRP L   1     127.382 138.055 105.502  0.00  0.00    +0.000 HD
ATOM     16  H   TRP L   1     128.802 138.418 106.293  0.00  0.00    +0.000 HD
ATOM     17  H   TRP L   1     128.473 136.846 105.851  0.00  0.00    +0.000 HD
TER 
REMARK  Name = /data/user_data/xianyang/t3-aimnet-affinity-balanced/L4/Q99705/pocket.pdb
REMARK                            x       y       z     vdW  Elec       q    Type
REMARK                         _______ _______ _______ _____ _____    ______ ____
ATOM      1  N   TYR M   1     126.677 139.615 100.537  0.00  0.00    +0.000 N 
ATOM      2  CA  TYR M   1     127.650 140.427  99.813  0.00  0.00    +0.000 C 
ATOM      3  C   TYR M   1     128.246 139.665  98.637  0.00  0.00    +0.000 C 
ATOM      4  O   TYR M   1     128.390 140.217  97.540  0.00  0.00    +0.000 OA
ATOM      5  CB  TYR M   1     128.752 140.898 100.763  0.00  0.00    +0.000 C 
ATOM      6  CG  TYR M   1     129.940 141.514 100.060  0.00  0.00    +0.000 A 
ATOM      7  CD1 TYR M   1     129.878 142.803  99.548  0.00  0.00    +0.000 A 
ATOM      8  CD2 TYR M   1     131.126 140.807  99.912  0.00  0.00    +0.000 A 
ATOM      9  CE1 TYR M   1     130.963 143.369  98.905  0.00  0.00    +0.000 A 
ATOM     10  CE2 TYR M   1     132.215 141.365  99.271  0.00  0.00    +0.000 A 
ATOM     11  CZ  TYR M   1     132.128 142.646  98.770  0.00  0.00    +0.000 A 
ATOM     12  OH  TYR M   1     133.211 143.204  98.131  0.00  0.00    +0.000 OA
ATOM     13  N   TYR M   2     128.604 138.396  98.844  0.00  0.00    +0.000 N 
ATOM     14  CA  TYR M   2     129.136 137.597  97.747  0.00  0.00    +0.000 C 
ATOM     15  C   TYR M   2     128.068 137.222  96.729  0.00  0.00    +0.000 C 
ATOM     16  O   TYR M   2     128.409 136.895  95.588  0.00  0.00    +0.000 OA
ATOM     17  CB  TYR M   2     129.810 136.336  98.287  0.00  0.00    +0.000 C 
ATOM     18  CG  TYR M   2     131.236 136.562  98.730  0.00  0.00    +0.000 A 
ATOM     19  CD1 TYR M   2     132.263 136.644  97.800  0.00  0.00    +0.000 A 
ATOM     20  CD2 TYR M   2     131.555 136.698 100.073  0.00  0.00    +0.000 A 
ATOM     21  CE1 TYR M   2     133.568 136.853  98.194  0.00  0.00    +0.000 A 
ATOM     22  CE2 TYR M   2     132.859 136.907 100.477  0.00  0.00    +0.000 A 
ATOM     23  CZ  TYR M   2     133.862 136.983  99.534  0.00  0.00    +0.000 A 
ATOM     24  OH  TYR M   2     135.163 137.192  99.930  0.00  0.00    +0.000 OA
ATOM     25  H   TYR M   1     125.947 139.306  99.895  0.00  0.00    +0.000 HD
ATOM     26  H   TYR M   1     126.260 140.170 101.284  0.00  0.00    +0.000 HD
ATOM     27  H   TYR M   1     127.144 138.801 100.938  0.00  0.00    +0.000 HD
ATOM     28  H   TYR M   1     133.156 144.075  97.789  0.00  0.00    +0.000 HD
ATOM     29  H   TYR M   2     128.509 137.999  99.740  0.00  0.00    +0.000 HD
ATOM     30  H   TYR M   2     135.845 137.244  99.290  0.00  0.00    +0.000 HD
TER 
REMARK  Name = /data/user_data/xianyang/t3-aimnet-affinity-balanced/L4/Q99705/pocket.pdb
REMARK                            x       y       z     vdW  Elec       q    Type
REMARK                         _______ _______ _______ _____ _____    ______ ____
ATOM      1  N   TYR N   1     124.294 147.047  97.381  0.00  0.00    +0.000 N 
ATOM      2  CA  TYR N   1     125.732 146.884  97.565  0.00  0.00    +0.000 C 
ATOM      3  C   TYR N   1     126.203 147.549  98.853  0.00  0.00    +0.000 C 
ATOM      4  O   TYR N   1     127.006 146.976  99.599  0.00  0.00    +0.000 OA
ATOM      5  CB  TYR N   1     126.479 147.451  96.358  0.00  0.00    +0.000 C 
ATOM      6  CG  TYR N   1     127.983 147.343  96.454  0.00  0.00    +0.000 A 
ATOM      7  CD1 TYR N   1     128.628 146.134  96.228  0.00  0.00    +0.000 A 
ATOM      8  CD2 TYR N   1     128.760 148.452  96.759  0.00  0.00    +0.000 A 
ATOM      9  CE1 TYR N   1     130.003 146.031  96.312  0.00  0.00    +0.000 A 
ATOM     10  CE2 TYR N   1     130.135 148.360  96.843  0.00  0.00    +0.000 A 
ATOM     11  CZ  TYR N   1     130.752 147.147  96.619  0.00  0.00    +0.000 A 
ATOM     12  OH  TYR N   1     132.122 147.051  96.703  0.00  0.00    +0.000 OA
ATOM     13  H   TYR N   1     124.009 146.593  96.513  0.00  0.00    +0.000 HD
ATOM     14  H   TYR N   1     124.068 148.040  97.335  0.00  0.00    +0.000 HD
ATOM     15  H   TYR N   1     123.800 146.621  98.166  0.00  0.00    +0.000 HD
ATOM     16  H   TYR N   1     132.544 146.228  96.551  0.00  0.00    +0.000 HD
TER 
REMARK  Name = /data/user_data/xianyang/t3-aimnet-affinity-balanced/L4/Q99705/pocket.pdb
REMARK                            x       y       z     vdW  Elec       q    Type
REMARK                         _______ _______ _______ _____ _____    ______ ____
ATOM      1  N   ILE O   1     127.541 145.381 102.460  0.00  0.00    +0.000 N 
ATOM      2  CA  ILE O   1     128.826 145.601 103.117  0.00  0.00    +0.000 C 
ATOM      3  C   ILE O   1     128.623 145.981 104.578  0.00  0.00    +0.000 C 
ATOM      4  O   ILE O   1     129.405 145.583 105.452  0.00  0.00    +0.000 OA
ATOM      5  CB  ILE O   1     129.635 146.667 102.357  0.00  0.00    +0.000 C 
ATOM      6  CG1 ILE O   1     129.917 146.202 100.929  0.00  0.00    +0.000 C 
ATOM      7  CG2 ILE O   1     130.939 146.970 103.077  0.00  0.00    +0.000 C 
ATOM      8  CD1 ILE O   1     130.773 147.163 100.136  0.00  0.00    +0.000 C 
ATOM      9  H   ILE O   1     127.697 145.128 101.484  0.00  0.00    +0.000 HD
ATOM     10  H   ILE O   1     126.985 146.235 102.505  0.00  0.00    +0.000 HD
ATOM     11  H   ILE O   1     127.043 144.626 102.932  0.00  0.00    +0.000 HD
TER 
REMARK  Name = /data/user_data/xianyang/t3-aimnet-affinity-balanced/L4/Q99705/pocket.pdb
REMARK                            x       y       z     vdW  Elec       q    Type
REMARK                         _______ _______ _______ _____ _____    ______ ____
ATOM      1  N   GLY P   1     128.119 142.894 106.373  0.00  0.00    +0.000 N 
ATOM      2  CA  GLY P   1     129.363 142.144 106.435  0.00  0.00    +0.000 C 
ATOM      3  C   GLY P   1     130.315 142.664 107.494  0.00  0.00    +0.000 C 
ATOM      4  O   GLY P   1     130.949 141.885 108.209  0.00  0.00    +0.000 OA
ATOM      5  N   TYR P   2     130.432 143.987 107.609  0.00  0.00    +0.000 N 
ATOM      6  CA  TYR P   2     131.301 144.579 108.617  0.00  0.00    +0.000 C 
ATOM      7  C   TYR P   2     130.687 144.565 110.009  0.00  0.00    +0.000 C 
ATOM      8  O   TYR P   2     131.383 144.892 110.976  0.00  0.00    +0.000 OA
ATOM      9  CB  TYR P   2     131.663 146.013 108.227  0.00  0.00    +0.000 C 
ATOM     10  CG  TYR P   2     132.672 146.096 107.106  0.00  0.00    +0.000 A 
ATOM     11  CD2 TYR P   2     133.538 145.044 106.848  0.00  0.00    +0.000 A 
ATOM     12  CD1 TYR P   2     132.761 147.226 106.306  0.00  0.00    +0.000 A 
ATOM     13  CE2 TYR P   2     134.462 145.112 105.824  0.00  0.00    +0.000 A 
ATOM     14  CE1 TYR P   2     133.684 147.303 105.281  0.00  0.00    +0.000 A 
ATOM     15  CZ  TYR P   2     134.531 146.244 105.044  0.00  0.00    +0.000 A 
ATOM     16  OH  TYR P   2     135.450 146.319 104.024  0.00  0.00    +0.000 OA
ATOM     17  H   GLY P   1     127.521 142.501 105.646  0.00  0.00    +0.000 HD
ATOM     18  H   GLY P   1     128.321 143.870 106.156  0.00  0.00    +0.000 HD
ATOM     19  H   GLY P   1     127.643 142.837 107.273  0.00  0.00    +0.000 HD
ATOM     20  H   TYR P   2     129.923 144.573 107.003  0.00  0.00    +0.000 HD
ATOM     21  H   TYR P   2     135.498 147.089 103.492  0.00  0.00    +0.000 HD
TER 
REMARK  Name = /data/user_data/xianyang/t3-aimnet-affinity-balanced/L4/Q99705/pocket.pdb
REMARK                            x       y       z     vdW  Elec       q    Type
REMARK                         _______ _______ _______ _____ _____    ______ ____
ATOM      1  N   ASN Q   1     130.206 141.994 111.524  0.00  0.00    +0.000 N 
ATOM      2  CA  ASN Q   1     130.943 140.926 112.188  0.00  0.00    +0.000 C 
ATOM      3  C   ASN Q   1     131.985 141.462 113.161  0.00  0.00    +0.000 C 
ATOM      4  O   ASN Q   1     132.364 140.750 114.097  0.00  0.00    +0.000 OA
ATOM      5  CB  ASN Q   1     131.611 140.031 111.143  0.00  0.00    +0.000 C 
ATOM      6  CG  ASN Q   1     132.375 138.881 111.764  0.00  0.00    +0.000 C 
ATOM      7  OD1 ASN Q   1     133.563 138.999 112.060  0.00  0.00    +0.000 OA
ATOM      8  ND2 ASN Q   1     131.694 137.759 111.966  0.00  0.00    +0.000 N 
ATOM      9  N   SER Q   2     132.457 142.696 112.963  0.00  0.00    +0.000 N 
ATOM     10  CA  SER Q   2     133.418 143.276 113.895  0.00  0.00    +0.000 C 
ATOM     11  C   SER Q   2     132.822 143.428 115.286  0.00  0.00    +0.000 C 
ATOM     12  O   SER Q   2     133.546 143.355 116.285  0.00  0.00    +0.000 OA
ATOM     13  CB  SER Q   2     133.897 144.634 113.382  0.00  0.00    +0.000 C 
ATOM     14  OG  SER Q   2     134.276 144.566 112.021  0.00  0.00    +0.000 OA
ATOM     15  H   ASN Q   1     129.522 141.589 110.885  0.00  0.00    +0.000 HD
ATOM     16  H   ASN Q   1     130.856 142.581 111.000  0.00  0.00    +0.000 HD
ATOM     17  H   ASN Q   1     129.724 142.560 112.223  0.00  0.00    +0.000 HD
ATOM     18  H   ASN Q   1     130.744 137.708 111.714  0.00  0.00    +0.000 HD
ATOM     19  H   ASN Q   1     132.139 136.978 112.368  0.00  0.00    +0.000 HD
ATOM     20  H   SER Q   2     132.155 143.217 112.184  0.00  0.00    +0.000 HD
ATOM     21  H   SER Q   2     133.512 144.299 111.486  0.00  0.00    +0.000 HD
TER 
