REMARK  Name = /home/xianyang/aimnet2_score_pipelines/work/L1234-fixed-receptor-eint-20260921/L2/Q92793/prepared.pdb
REMARK                            x       y       z     vdW  Elec       q    Type
REMARK                         _______ _______ _______ _____ _____    ______ ____
ATOM      1  CH3 ACE A   1       4.443   6.167  22.695  0.00  0.00    +0.000 C 
ATOM      2  C   ACE A   1       3.304   5.186  22.465  0.00  0.00    +0.000 C 
ATOM      3  O   ACE A   1       3.509   3.973  22.510  0.00  0.00    +0.000 OA
ATOM      4  N   ASP A   2       2.107   5.717  22.235  0.00  0.00    +0.000 N 
ATOM      5  H   ASP A   2       2.054   6.715  22.088  0.00  0.00    +0.000 HD
ATOM      6  CA  ASP A   2       0.892   4.974  21.906  0.00  0.00    +0.000 C 
ATOM      7  C   ASP A   2       0.455   5.394  20.511  0.00  0.00    +0.000 C 
ATOM      8  O   ASP A   2       0.290   6.601  20.254  0.00  0.00    +0.000 OA
ATOM      9  CB  ASP A   2      -0.224   5.260  22.931  0.00  0.00    +0.000 C 
ATOM     10  CG  ASP A   2      -1.099   4.041  23.231  0.00  0.00    +0.000 C 
ATOM     11  OD1 ASP A   2      -1.363   3.760  24.420  0.00  0.00    +0.000 OA
ATOM     12  OD2 ASP A   2      -1.585   3.404  22.273  0.00  0.00    +0.000 OA
ATOM     13  N   PRO A   3       0.270   4.464  19.578  0.00  0.00    +0.000 N 
ATOM     14  CA  PRO A   3       0.340   3.013  19.741  0.00  0.00    +0.000 C 
ATOM     15  C   PRO A   3       1.709   2.402  19.437  0.00  0.00    +0.000 C 
ATOM     16  O   PRO A   3       1.837   1.174  19.451  0.00  0.00    +0.000 OA
ATOM     17  CB  PRO A   3      -0.696   2.542  18.720  0.00  0.00    +0.000 C 
ATOM     18  CG  PRO A   3      -0.463   3.491  17.552  0.00  0.00    +0.000 C 
ATOM     19  CD  PRO A   3      -0.032   4.822  18.182  0.00  0.00    +0.000 C 
ATOM     20  N   GLU A   4       2.735   3.212  19.150  0.00  0.00    +0.000 N 
ATOM     21  H   GLU A   4       2.601   4.227  19.103  0.00  0.00    +0.000 HD
ATOM     22  CA  GLU A   4       3.966   2.667  18.585  0.00  0.00    +0.000 C 
ATOM     23  C   GLU A   4       4.627   1.667  19.526  0.00  0.00    +0.000 C 
ATOM     24  O   GLU A   4       5.328   0.756  19.069  0.00  0.00    +0.000 OA
ATOM     25  CB  GLU A   4       4.929   3.803  18.223  0.00  0.00    +0.000 C 
ATOM     26  CG  GLU A   4       4.496   4.599  16.959  0.00  0.00    +0.000 C 
ATOM     27  CD  GLU A   4       3.749   5.880  17.305  0.00  0.00    +0.000 C 
ATOM     28  OE1 GLU A   4       3.225   5.967  18.437  0.00  0.00    +0.000 OA
ATOM     29  OE2 GLU A   4       3.684   6.793  16.448  0.00  0.00    +0.000 OA
ATOM     30  N   SER A   5       4.399   1.783  20.830  0.00  0.00    +0.000 N 
ATOM     31  H   SER A   5       3.865   2.572  21.179  0.00  0.00    +0.000 HD
ATOM     32  CA  SER A   5       5.057   0.850  21.728  0.00  0.00    +0.000 C 
ATOM     33  C   SER A   5       4.249  -0.409  22.021  0.00  0.00    +0.000 C 
ATOM     34  O   SER A   5       4.798  -1.332  22.629  0.00  0.00    +0.000 OA
ATOM     35  CB  SER A   5       5.405   1.544  23.053  0.00  0.00    +0.000 C 
ATOM     36  OG  SER A   5       4.253   1.624  23.886  0.00  0.00    +0.000 OA
ATOM     37  HG  SER A   5       3.751   2.367  23.479  0.00  0.00    +0.000 HD
ATOM     38  N   LEU A   6       2.969  -0.484  21.636  0.00  0.00    +0.000 N 
ATOM     39  H   LEU A   6       2.574   0.237  21.038  0.00  0.00    +0.000 HD
ATOM     40  CA  LEU A   6       2.165  -1.635  22.054  0.00  0.00    +0.000 C 
ATOM     41  C   LEU A   6       2.714  -2.988  21.606  0.00  0.00    +0.000 C 
ATOM     42  O   LEU A   6       2.636  -3.935  22.405  0.00  0.00    +0.000 OA
ATOM     43  CB  LEU A   6       0.698  -1.476  21.610  0.00  0.00    +0.000 C 
ATOM     44  CG  LEU A   6       0.073  -0.082  21.678  0.00  0.00    +0.000 C 
ATOM     45  CD1 LEU A   6      -1.339  -0.053  21.069  0.00  0.00    +0.000 C 
ATOM     46  CD2 LEU A   6       0.037   0.359  23.119  0.00  0.00    +0.000 C 
ATOM     47  N   PRO A   7       3.258  -3.169  20.394  0.00  0.00    +0.000 N 
ATOM     48  CA  PRO A   7       3.868  -4.474  20.062  0.00  0.00    +0.000 C 
ATOM     49  C   PRO A   7       5.086  -4.805  20.904  0.00  0.00    +0.000 C 
ATOM     50  O   PRO A   7       5.502  -5.973  20.929  0.00  0.00    +0.000 OA
ATOM     51  CB  PRO A   7       4.262  -4.328  18.585  0.00  0.00    +0.000 C 
ATOM     52  CG  PRO A   7       3.558  -3.145  18.097  0.00  0.00    +0.000 C 
ATOM     53  CD  PRO A   7       3.359  -2.235  19.267  0.00  0.00    +0.000 C 
ATOM     54  N   PHE A   8       5.650  -3.822  21.608  0.00  0.00    +0.000 N 
ATOM     55  H   PHE A   8       5.237  -2.899  21.592  0.00  0.00    +0.000 HD
ATOM     56  CA  PHE A   8       6.936  -3.976  22.270  0.00  0.00    +0.000 C 
ATOM     57  C   PHE A   8       6.825  -4.154  23.773  0.00  0.00    +0.000 C 
ATOM     58  O   PHE A   8       7.844  -4.406  24.428  0.00  0.00    +0.000 OA
ATOM     59  CB  PHE A   8       7.831  -2.767  21.945  0.00  0.00    +0.000 C 
ATOM     60  CG  PHE A   8       8.165  -2.652  20.479  0.00  0.00    +0.000 A 
ATOM     61  CD1 PHE A   8       9.246  -3.355  19.945  0.00  0.00    +0.000 A 
ATOM     62  CD2 PHE A   8       7.395  -1.875  19.630  0.00  0.00    +0.000 A 
ATOM     63  CE1 PHE A   8       9.547  -3.283  18.596  0.00  0.00    +0.000 A 
ATOM     64  CE2 PHE A   8       7.699  -1.799  18.274  0.00  0.00    +0.000 A 
ATOM     65  CZ  PHE A   8       8.779  -2.492  17.759  0.00  0.00    +0.000 A 
ATOM     66  N   ARG A   9       5.619  -4.063  24.338  0.00  0.00    +0.000 N 
ATOM     67  H   ARG A   9       4.818  -3.880  23.746  0.00  0.00    +0.000 HD
ATOM     68  CA  ARG A   9       5.491  -4.066  25.789  0.00  0.00    +0.000 C 
ATOM     69  C   ARG A   9       5.563  -5.458  26.403  0.00  0.00    +0.000 C 
ATOM     70  O   ARG A   9       5.720  -5.566  27.621  0.00  0.00    +0.000 OA
ATOM     71  CB  ARG A   9       4.188  -3.388  26.203  0.00  0.00    +0.000 C 
ATOM     72  CG  ARG A   9       4.132  -1.917  25.853  0.00  0.00    +0.000 C 
ATOM     73  CD  ARG A   9       2.791  -1.337  26.233  0.00  0.00    +0.000 C 
ATOM     74  NE  ARG A   9       2.738   0.102  26.010  0.00  0.00    +0.000 N 
ATOM     75  HE  ARG A   9       3.516   0.538  25.525  0.00  0.00    +0.000 HD
ATOM     76  CZ  ARG A   9       1.666   0.854  26.236  0.00  0.00    +0.000 C 
ATOM     77  NH1 ARG A   9       0.551   0.339  26.719  0.00  0.00    +0.000 N 
ATOM     78 HH11 ARG A   9      -0.266   0.924  26.786  0.00  0.00    +0.000 HD
ATOM     79 HH12 ARG A   9       0.497  -0.642  26.910  0.00  0.00    +0.000 HD
ATOM     80  NH2 ARG A   9       1.712   2.153  25.957  0.00  0.00    +0.000 N 
ATOM     81 HH21 ARG A   9       0.858   2.698  25.940  0.00  0.00    +0.000 HD
ATOM     82 HH22 ARG A   9       2.544   2.546  25.554  0.00  0.00    +0.000 HD
ATOM     83  N   GLN A  10       5.447  -6.513  25.610  0.00  0.00    +0.000 N 
ATOM     84  H   GLN A  10       5.423  -6.375  24.609  0.00  0.00    +0.000 HD
ATOM     85  CA  GLN A  10       5.576  -7.873  26.100  0.00  0.00    +0.000 C 
ATOM     86  C   GLN A  10       6.427  -8.646  25.108  0.00  0.00    +0.000 C 
ATOM     87  O   GLN A  10       6.587  -8.221  23.956  0.00  0.00    +0.000 OA
ATOM     88  CB  GLN A  10       4.200  -8.537  26.273  0.00  0.00    +0.000 C 
ATOM     89  CG  GLN A  10       3.366  -7.968  27.432  0.00  0.00    +0.000 C 
ATOM     90  CD  GLN A  10       3.869  -8.407  28.809  0.00  0.00    +0.000 C 
ATOM     91  OE1 GLN A  10       4.256  -9.564  29.007  0.00  0.00    +0.000 OA
ATOM     92  NE2 GLN A  10       3.867  -7.478  29.767  0.00  0.00    +0.000 N 
ATOM     93 HE21 GLN A  10       3.696  -6.516  29.543  0.00  0.00    +0.000 HD
ATOM     94 HE22 GLN A  10       4.232  -7.751  30.661  0.00  0.00    +0.000 HD
ATOM     95  N   PRO A  11       7.001  -9.775  25.522  0.00  0.00    +0.000 N 
ATOM     96  CA  PRO A  11       7.844 -10.536  24.592  0.00  0.00    +0.000 C 
ATOM     97  C   PRO A  11       7.015 -11.027  23.411  0.00  0.00    +0.000 C 
ATOM     98  O   PRO A  11       5.824 -11.306  23.541  0.00  0.00    +0.000 OA
ATOM     99  CB  PRO A  11       8.355 -11.707  25.436  0.00  0.00    +0.000 C 
ATOM    100  CG  PRO A  11       8.165 -11.285  26.856  0.00  0.00    +0.000 C 
ATOM    101  CD  PRO A  11       6.986 -10.366  26.874  0.00  0.00    +0.000 C 
ATOM    102  N   VAL A  12       7.655 -11.100  22.244  0.00  0.00    +0.000 N 
ATOM    103  H   VAL A  12       8.623 -10.835  22.189  0.00  0.00    +0.000 HD
ATOM    104  CA  VAL A  12       6.983 -11.660  21.075  0.00  0.00    +0.000 C 
ATOM    105  C   VAL A  12       6.575 -13.101  21.367  0.00  0.00    +0.000 C 
ATOM    106  O   VAL A  12       7.351 -13.885  21.925  0.00  0.00    +0.000 OA
ATOM    107  CB  VAL A  12       7.900 -11.565  19.841  0.00  0.00    +0.000 C 
ATOM    108  CG1 VAL A  12       7.395 -12.437  18.700  0.00  0.00    +0.000 C 
ATOM    109  CG2 VAL A  12       8.085 -10.104  19.406  0.00  0.00    +0.000 C 
ATOM    110  N   ASP A  13       5.338 -13.464  20.985  0.00  0.00    +0.000 N 
ATOM    111  H   ASP A  13       4.704 -12.774  20.616  0.00  0.00    +0.000 HD
ATOM    112  CA  ASP A  13       4.851 -14.834  21.161  0.00  0.00    +0.000 C 
ATOM    113  C   ASP A  13       4.628 -15.451  19.783  0.00  0.00    +0.000 C 
ATOM    114  O   ASP A  13       3.584 -15.208  19.158  0.00  0.00    +0.000 OA
ATOM    115  CB  ASP A  13       3.556 -14.844  21.989  0.00  0.00    +0.000 C 
ATOM    116  CG  ASP A  13       3.081 -16.252  22.352  0.00  0.00    +0.000 C 
ATOM    117  OD1 ASP A  13       3.430 -17.225  21.642  0.00  0.00    +0.000 OA
ATOM    118  OD2 ASP A  13       2.339 -16.378  23.356  0.00  0.00    +0.000 OA
ATOM    119  N   PRO A  14       5.585 -16.214  19.248  0.00  0.00    +0.000 N 
ATOM    120  CA  PRO A  14       5.418 -16.728  17.879  0.00  0.00    +0.000 C 
ATOM    121  C   PRO A  14       4.241 -17.668  17.738  0.00  0.00    +0.000 C 
ATOM    122  O   PRO A  14       3.646 -17.723  16.657  0.00  0.00    +0.000 OA
ATOM    123  CB  PRO A  14       6.749 -17.440  17.601  0.00  0.00    +0.000 C 
ATOM    124  CG  PRO A  14       7.750 -16.735  18.530  0.00  0.00    +0.000 C 
ATOM    125  CD  PRO A  14       6.947 -16.438  19.770  0.00  0.00    +0.000 C 
ATOM    126  N   GLN A  15       3.876 -18.401  18.795  0.00  0.00    +0.000 N 
ATOM    127  H   GLN A  15       4.244 -18.188  19.718  0.00  0.00    +0.000 HD
ATOM    128  CA  GLN A  15       2.726 -19.293  18.672  0.00  0.00    +0.000 C 
ATOM    129  C   GLN A  15       1.437 -18.493  18.536  0.00  0.00    +0.000 C 
ATOM    130  O   GLN A  15       0.605 -18.780  17.668  0.00  0.00    +0.000 OA
ATOM    131  CB  GLN A  15       2.653 -20.246  19.864  0.00  0.00    +0.000 C 
ATOM    132  CG  GLN A  15       1.961 -21.564  19.542  0.00  0.00    +0.000 C 
ATOM    133  CD  GLN A  15       1.199 -22.129  20.725  0.00  0.00    +0.000 C 
ATOM    134  OE1 GLN A  15      -0.028 -22.267  20.680  0.00  0.00    +0.000 OA
ATOM    135  NE2 GLN A  15       1.922 -22.451  21.798  0.00  0.00    +0.000 N 
ATOM    136 HE21 GLN A  15       1.405 -22.773  22.597  0.00  0.00    +0.000 HD
ATOM    137 HE22 GLN A  15       2.902 -22.243  21.836  0.00  0.00    +0.000 HD
ATOM    138  N   LEU A  16       1.264 -17.463  19.369  0.00  0.00    +0.000 N 
ATOM    139  H   LEU A  16       1.951 -17.279  20.098  0.00  0.00    +0.000 HD
ATOM    140  CA  LEU A  16       0.052 -16.657  19.291  0.00  0.00    +0.000 C 
ATOM    141  C   LEU A  16      -0.013 -15.885  17.977  0.00  0.00    +0.000 C 
ATOM    142  O   LEU A  16      -1.090 -15.743  17.388  0.00  0.00    +0.000 OA
ATOM    143  CB  LEU A  16      -0.017 -15.707  20.485  0.00  0.00    +0.000 C 
ATOM    144  CG  LEU A  16      -1.146 -14.677  20.511  0.00  0.00    +0.000 C 
ATOM    145  CD1 LEU A  16      -2.421 -15.269  21.075  0.00  0.00    +0.000 C 
ATOM    146  CD2 LEU A  16      -0.716 -13.439  21.313  0.00  0.00    +0.000 C 
ATOM    147  N   LEU A  17       1.129 -15.393  17.496  0.00  0.00    +0.000 N 
ATOM    148  H   LEU A  17       1.977 -15.500  18.046  0.00  0.00    +0.000 HD
ATOM    149  CA  LEU A  17       1.160 -14.616  16.261  0.00  0.00    +0.000 C 
ATOM    150  C   LEU A  17       1.236 -15.481  15.002  0.00  0.00    +0.000 C 
ATOM    151  O   LEU A  17       1.097 -14.944  13.893  0.00  0.00    +0.000 OA
ATOM    152  CB  LEU A  17       2.335 -13.633  16.291  0.00  0.00    +0.000 C 
ATOM    153  CG  LEU A  17       2.269 -12.524  17.341  0.00  0.00    +0.000 C 
ATOM    154  CD1 LEU A  17       3.598 -11.790  17.416  0.00  0.00    +0.000 C 
ATOM    155  CD2 LEU A  17       1.165 -11.537  17.054  0.00  0.00    +0.000 C 
ATOM    156  N   GLY A  18       1.435 -16.788  15.141  0.00  0.00    +0.000 N 
ATOM    157  H   GLY A  18       1.528 -17.183  16.068  0.00  0.00    +0.000 HD
ATOM    158  CA  GLY A  18       1.514 -17.663  13.981  0.00  0.00    +0.000 C 
ATOM    159  C   GLY A  18       2.710 -17.401  13.092  0.00  0.00    +0.000 C 
ATOM    160  O   GLY A  18       2.580 -17.414  11.859  0.00  0.00    +0.000 OA
ATOM    161  N   ILE A  19       3.880 -17.169  13.686  0.00  0.00    +0.000 N 
ATOM    162  H   ILE A  19       3.915 -17.174  14.700  0.00  0.00    +0.000 HD
ATOM    163  CA  ILE A  19       5.096 -16.921  12.914  0.00  0.00    +0.000 C 
ATOM    164  C   ILE A  19       6.200 -17.860  13.395  0.00  0.00    +0.000 C 
ATOM    165  O   ILE A  19       7.110 -17.442  14.130  0.00  0.00    +0.000 OA
ATOM    166  CB  ILE A  19       5.511 -15.447  13.011  0.00  0.00    +0.000 C 
ATOM    167  CG1 ILE A  19       5.390 -14.954  14.451  0.00  0.00    +0.000 C 
ATOM    168  CG2 ILE A  19       4.637 -14.595  12.101  0.00  0.00    +0.000 C 
ATOM    169  CD1 ILE A  19       5.977 -13.580  14.657  0.00  0.00    +0.000 C 
ATOM    170  N   PRO A  20       6.176 -19.136  13.000  0.00  0.00    +0.000 N 
ATOM    171  CA  PRO A  20       7.097 -20.111  13.607  0.00  0.00    +0.000 C 
ATOM    172  C   PRO A  20       8.560 -19.886  13.267  0.00  0.00    +0.000 C 
ATOM    173  O   PRO A  20       9.422 -20.534  13.878  0.00  0.00    +0.000 OA
ATOM    174  CB  PRO A  20       6.598 -21.459  13.061  0.00  0.00    +0.000 C 
ATOM    175  CG  PRO A  20       5.801 -21.110  11.846  0.00  0.00    +0.000 C 
ATOM    176  CD  PRO A  20       5.191 -19.773  12.106  0.00  0.00    +0.000 C 
ATOM    177  N   ASP A  21       8.889 -19.000  12.333  0.00  0.00    +0.000 N 
ATOM    178  H   ASP A  21       8.211 -18.387  11.894  0.00  0.00    +0.000 HD
ATOM    179  CA  ASP A  21      10.293 -18.762  12.049  0.00  0.00    +0.000 C 
ATOM    180  C   ASP A  21      10.879 -17.650  12.902  0.00  0.00    +0.000 C 
ATOM    181  O   ASP A  21      12.067 -17.355  12.760  0.00  0.00    +0.000 OA
ATOM    182  CB  ASP A  21      10.514 -18.444  10.566  0.00  0.00    +0.000 C 
ATOM    183  CG  ASP A  21       9.840 -17.163  10.111  0.00  0.00    +0.000 C 
ATOM    184  OD1 ASP A  21       8.952 -16.606  10.807  0.00  0.00    +0.000 OA
ATOM    185  OD2 ASP A  21      10.239 -16.690   9.020  0.00  0.00    +0.000 OA
ATOM    186  N   TYR A  22      10.084 -17.052  13.796  0.00  0.00    +0.000 N 
ATOM    187  H   TYR A  22       9.090 -17.252  13.772  0.00  0.00    +0.000 HD
ATOM    188  CA  TYR A  22      10.559 -15.882  14.529  0.00  0.00    +0.000 C 
ATOM    189  C   TYR A  22      11.806 -16.216  15.337  0.00  0.00    +0.000 C 
ATOM    190  O   TYR A  22      12.800 -15.483  15.287  0.00  0.00    +0.000 OA
ATOM    191  CB  TYR A  22       9.463 -15.310  15.436  0.00  0.00    +0.000 C 
ATOM    192  CG  TYR A  22       9.954 -14.076  16.160  0.00  0.00    +0.000 A 
ATOM    193  CD1 TYR A  22       9.935 -12.834  15.540  0.00  0.00    +0.000 A 
ATOM    194  CD2 TYR A  22      10.467 -14.149  17.456  0.00  0.00    +0.000 A 
ATOM    195  CE1 TYR A  22      10.406 -11.697  16.172  0.00  0.00    +0.000 A 
ATOM    196  CE2 TYR A  22      10.952 -13.010  18.104  0.00  0.00    +0.000 A 
ATOM    197  CZ  TYR A  22      10.925 -11.791  17.460  0.00  0.00    +0.000 A 
ATOM    198  OH  TYR A  22      11.398 -10.650  18.086  0.00  0.00    +0.000 OA
ATOM    199  HH  TYR A  22      11.667 -10.844  18.985  0.00  0.00    +0.000 HD
ATOM    200  N   PHE A  23      11.786 -17.336  16.066  0.00  0.00    +0.000 N 
ATOM    201  H   PHE A  23      10.974 -17.933  16.038  0.00  0.00    +0.000 HD
ATOM    202  CA  PHE A  23      12.931 -17.678  16.897  0.00  0.00    +0.000 C 
ATOM    203  C   PHE A  23      14.076 -18.273  16.088  0.00  0.00    +0.000 C 
ATOM    204  O   PHE A  23      15.193 -18.373  16.601  0.00  0.00    +0.000 OA
ATOM    205  CB  PHE A  23      12.534 -18.657  18.011  0.00  0.00    +0.000 C 
ATOM    206  CG  PHE A  23      11.729 -18.041  19.122  0.00  0.00    +0.000 A 
ATOM    207  CD1 PHE A  23      11.856 -16.691  19.449  0.00  0.00    +0.000 A 
ATOM    208  CD2 PHE A  23      10.846 -18.818  19.850  0.00  0.00    +0.000 A 
ATOM    209  CE1 PHE A  23      11.097 -16.141  20.477  0.00  0.00    +0.000 A 
ATOM    210  CE2 PHE A  23      10.094 -18.267  20.882  0.00  0.00    +0.000 A 
ATOM    211  CZ  PHE A  23      10.216 -16.930  21.184  0.00  0.00    +0.000 A 
ATOM    212  N   NME A  24      13.826 -18.681  14.843  0.00  0.00    +0.000 N 
ATOM    213  H   NME A  24      12.932 -18.454  14.426  0.00  0.00    +0.000 HD
ATOM    214  C   NME A  24      14.928 -19.031  13.954  0.00  0.00    +0.000 C 
TER 
REMARK  Name = /home/xianyang/aimnet2_score_pipelines/work/L1234-fixed-receptor-eint-20260921/L2/Q92793/prepared.pdb
REMARK                            x       y       z     vdW  Elec       q    Type
REMARK                         _______ _______ _______ _____ _____    ______ ____
ATOM      1  CH3 ACE B   1      14.997  -2.304  17.753  0.00  0.00    +0.000 C 
ATOM      2  C   ACE B   1      15.506  -3.176  16.621  0.00  0.00    +0.000 C 
ATOM      3  O   ACE B   1      14.804  -3.414  15.625  0.00  0.00    +0.000 OA
ATOM      4  N   ASN B   2      16.743  -3.651  16.742  0.00  0.00    +0.000 N 
ATOM      5  H   ASN B   2      17.316  -3.351  17.514  0.00  0.00    +0.000 HD
ATOM      6  CA  ASN B   2      17.339  -4.396  15.635  0.00  0.00    +0.000 C 
ATOM      7  C   ASN B   2      16.589  -5.695  15.373  0.00  0.00    +0.000 C 
ATOM      8  O   ASN B   2      16.479  -6.132  14.224  0.00  0.00    +0.000 OA
ATOM      9  CB  ASN B   2      18.809  -4.677  15.930  0.00  0.00    +0.000 C 
ATOM     10  CG  ASN B   2      19.683  -3.473  15.660  0.00  0.00    +0.000 C 
ATOM     11  OD1 ASN B   2      19.384  -2.667  14.783  0.00  0.00    +0.000 OA
ATOM     12  ND2 ASN B   2      20.764  -3.339  16.415  0.00  0.00    +0.000 N 
ATOM     13 HD21 ASN B   2      21.046  -4.088  17.012  0.00  0.00    +0.000 HD
ATOM     14 HD22 ASN B   2      21.326  -2.523  16.252  0.00  0.00    +0.000 HD
ATOM     15  N   ASN B   3      16.082  -6.341  16.426  0.00  0.00    +0.000 N 
ATOM     16  H   ASN B   3      16.263  -6.003  17.356  0.00  0.00    +0.000 HD
ATOM     17  CA  ASN B   3      15.288  -7.547  16.213  0.00  0.00    +0.000 C 
ATOM     18  C   ASN B   3      14.065  -7.243  15.360  0.00  0.00    +0.000 C 
ATOM     19  O   ASN B   3      13.750  -7.985  14.424  0.00  0.00    +0.000 OA
ATOM     20  CB  ASN B   3      14.848  -8.155  17.543  0.00  0.00    +0.000 C 
ATOM     21  CG  ASN B   3      15.984  -8.804  18.292  0.00  0.00    +0.000 C 
ATOM     22  OD1 ASN B   3      17.027  -9.086  17.719  0.00  0.00    +0.000 OA
ATOM     23  ND2 ASN B   3      15.780  -9.050  19.598  0.00  0.00    +0.000 N 
ATOM     24 HD21 ASN B   3      14.907  -8.837  20.042  0.00  0.00    +0.000 HD
ATOM     25 HD22 ASN B   3      16.530  -9.512  20.084  0.00  0.00    +0.000 HD
ATOM     26  N   ALA B   4      13.389  -6.138  15.651  0.00  0.00    +0.000 N 
ATOM     27  H   ALA B   4      13.752  -5.485  16.327  0.00  0.00    +0.000 HD
ATOM     28  CA  ALA B   4      12.157  -5.817  14.941  0.00  0.00    +0.000 C 
ATOM     29  C   ALA B   4      12.453  -5.392  13.511  0.00  0.00    +0.000 C 
ATOM     30  O   ALA B   4      11.687  -5.708  12.596  0.00  0.00    +0.000 OA
ATOM     31  CB  ALA B   4      11.395  -4.721  15.695  0.00  0.00    +0.000 C 
ATOM     32  N   TRP B   5      13.548  -4.654  13.303  0.00  0.00    +0.000 N 
ATOM     33  H   TRP B   5      14.088  -4.302  14.088  0.00  0.00    +0.000 HD
ATOM     34  CA  TRP B   5      13.923  -4.268  11.947  0.00  0.00    +0.000 C 
ATOM     35  C   TRP B   5      14.376  -5.474  11.138  0.00  0.00    +0.000 C 
ATOM     36  O   TRP B   5      14.183  -5.519   9.911  0.00  0.00    +0.000 OA
ATOM     37  CB  TRP B   5      15.021  -3.210  11.989  0.00  0.00    +0.000 C 
ATOM     38  CG  TRP B   5      14.568  -1.847  12.419  0.00  0.00    +0.000 A 
ATOM     39  CD1 TRP B   5      13.359  -1.243  12.157  0.00  0.00    +0.000 A 
ATOM     40  CD2 TRP B   5      15.327  -0.904  13.194  0.00  0.00    +0.000 A 
ATOM     41  NE1 TRP B   5      13.341   0.030  12.697  0.00  0.00    +0.000 N 
ATOM     42  HE1 TRP B   5      12.546   0.654  12.659  0.00  0.00    +0.000 HD
ATOM     43  CE2 TRP B   5      14.532   0.252  13.349  0.00  0.00    +0.000 A 
ATOM     44  CE3 TRP B   5      16.601  -0.928  13.771  0.00  0.00    +0.000 A 
ATOM     45  CZ2 TRP B   5      14.975   1.375  14.058  0.00  0.00    +0.000 A 
ATOM     46  CZ3 TRP B   5      17.046   0.190  14.460  0.00  0.00    +0.000 A 
ATOM     47  CH2 TRP B   5      16.237   1.323  14.598  0.00  0.00    +0.000 A 
ATOM     48  N   LEU B   6      14.969  -6.460  11.808  0.00  0.00    +0.000 N 
ATOM     49  H   LEU B   6      15.198  -6.335  12.787  0.00  0.00    +0.000 HD
ATOM     50  CA  LEU B   6      15.425  -7.664  11.125  0.00  0.00    +0.000 C 
ATOM     51  C   LEU B   6      14.256  -8.537  10.698  0.00  0.00    +0.000 C 
ATOM     52  O   LEU B   6      14.264  -9.092   9.590  0.00  0.00    +0.000 OA
ATOM     53  CB  LEU B   6      16.372  -8.445  12.040  0.00  0.00    +0.000 C 
ATOM     54  CG  LEU B   6      16.806  -9.842  11.584  0.00  0.00    +0.000 C 
ATOM     55  CD1 LEU B   6      17.579  -9.752  10.310  0.00  0.00    +0.000 C 
ATOM     56  CD2 LEU B   6      17.660 -10.533  12.644  0.00  0.00    +0.000 C 
ATOM     57  N   TYR B   7      13.255  -8.693  11.561  0.00  0.00    +0.000 N 
ATOM     58  H   TYR B   7      13.332  -8.289  12.487  0.00  0.00    +0.000 HD
ATOM     59  CA  TYR B   7      12.210  -9.663  11.265  0.00  0.00    +0.000 C 
ATOM     60  C   TYR B   7      11.101  -9.094  10.385  0.00  0.00    +0.000 C 
ATOM     61  O   TYR B   7      10.583  -9.795   9.511  0.00  0.00    +0.000 OA
ATOM     62  CB  TYR B   7      11.616 -10.231  12.561  0.00  0.00    +0.000 C 
ATOM     63  CG  TYR B   7      10.629 -11.320  12.233  0.00  0.00    +0.000 A 
ATOM     64  CD1 TYR B   7      11.064 -12.583  11.891  0.00  0.00    +0.000 A 
ATOM     65  CD2 TYR B   7       9.262 -11.061  12.222  0.00  0.00    +0.000 A 
ATOM     66  CE1 TYR B   7      10.166 -13.582  11.553  0.00  0.00    +0.000 A 
ATOM     67  CE2 TYR B   7       8.356 -12.056  11.870  0.00  0.00    +0.000 A 
ATOM     68  CZ  TYR B   7       8.821 -13.305  11.548  0.00  0.00    +0.000 A 
ATOM     69  OH  TYR B   7       7.920 -14.276  11.204  0.00  0.00    +0.000 OA
ATOM     70  HH  TYR B   7       7.256 -13.977  10.594  0.00  0.00    +0.000 HD
ATOM     71  N   ASN B   8      10.746  -7.839  10.581  0.00  0.00    +0.000 N 
ATOM     72  H   ASN B   8      11.307  -7.276  11.208  0.00  0.00    +0.000 HD
ATOM     73  CA  ASN B   8       9.594  -7.221   9.944  0.00  0.00    +0.000 C 
ATOM     74  C   ASN B   8       9.979  -6.490   8.656  0.00  0.00    +0.000 C 
ATOM     75  O   ASN B   8      11.096  -6.000   8.515  0.00  0.00    +0.000 OA
ATOM     76  CB  ASN B   8       8.934  -6.273  10.940  0.00  0.00    +0.000 C 
ATOM     77  CG  ASN B   8       8.429  -7.006  12.168  0.00  0.00    +0.000 C 
ATOM     78  OD1 ASN B   8       7.349  -7.605  12.147  0.00  0.00    +0.000 OA
ATOM     79  ND2 ASN B   8       9.219  -7.004  13.222  0.00  0.00    +0.000 N 
ATOM     80 HD21 ASN B   8       8.912  -7.506  14.034  0.00  0.00    +0.000 HD
ATOM     81 HD22 ASN B   8      10.115  -6.538  13.148  0.00  0.00    +0.000 HD
ATOM     82  N   ARG B   9       9.048  -6.450   7.700  0.00  0.00    +0.000 N 
ATOM     83  H   ARG B   9       8.140  -6.857   7.879  0.00  0.00    +0.000 HD
ATOM     84  CA  ARG B   9       9.327  -5.773   6.439  0.00  0.00    +0.000 C 
ATOM     85  C   ARG B   9       9.272  -4.264   6.619  0.00  0.00    +0.000 C 
ATOM     86  O   ARG B   9       8.540  -3.753   7.464  0.00  0.00    +0.000 OA
ATOM     87  CB  ARG B   9       8.318  -6.166   5.363  0.00  0.00    +0.000 C 
ATOM     88  CG  ARG B   9       8.294  -7.610   4.979  0.00  0.00    +0.000 C 
ATOM     89  CD  ARG B   9       9.615  -8.053   4.370  0.00  0.00    +0.000 C 
ATOM     90  NE  ARG B   9       9.616  -9.498   4.152  0.00  0.00    +0.000 N 
ATOM     91  HE  ARG B   9       9.009  -9.858   3.434  0.00  0.00    +0.000 HD
ATOM     92  CZ  ARG B   9      10.329 -10.384   4.834  0.00  0.00    +0.000 C 
ATOM     93  NH1 ARG B   9      11.160 -10.015   5.793  0.00  0.00    +0.000 N 
ATOM     94 HH11 ARG B   9      11.620 -10.714   6.356  0.00  0.00    +0.000 HD
ATOM     95 HH12 ARG B   9      11.197  -9.060   6.094  0.00  0.00    +0.000 HD
ATOM     96  NH2 ARG B   9      10.197 -11.678   4.546  0.00  0.00    +0.000 N 
ATOM     97 HH21 ARG B   9       9.566 -11.994   3.833  0.00  0.00    +0.000 HD
ATOM     98 HH22 ARG B   9      10.698 -12.359   5.093  0.00  0.00    +0.000 HD
ATOM     99  N   LYS B  10      10.030  -3.541   5.783  0.00  0.00    +0.000 N 
ATOM    100  H   LYS B  10      10.650  -4.023   5.159  0.00  0.00    +0.000 HD
ATOM    101  CA  LYS B  10      10.164  -2.100   5.981  0.00  0.00    +0.000 C 
ATOM    102  C   LYS B  10       8.850  -1.356   5.806  0.00  0.00    +0.000 C 
ATOM    103  O   LYS B  10       8.693  -0.262   6.344  0.00  0.00    +0.000 OA
ATOM    104  CB  LYS B  10      11.216  -1.526   5.024  0.00  0.00    +0.000 C 
ATOM    105  CG  LYS B  10      12.552  -2.255   5.048  0.00  0.00    +0.000 C 
ATOM    106  CD  LYS B  10      13.585  -1.615   4.128  0.00  0.00    +0.000 C 
ATOM    107  CE  LYS B  10      13.333  -2.046   2.695  0.00  0.00    +0.000 C 
ATOM    108  NZ  LYS B  10      13.353  -3.537   2.550  0.00  0.00    +0.000 N 
ATOM    109  HZ1 LYS B  10      13.223  -3.809   1.582  0.00  0.00    +0.000 HD
ATOM    110  HZ2 LYS B  10      12.643  -3.974   3.117  0.00  0.00    +0.000 HD
ATOM    111  HZ3 LYS B  10      14.261  -3.878   2.845  0.00  0.00    +0.000 HD
ATOM    112  N   THR B  11       7.915  -1.914   5.051  0.00  0.00    +0.000 N 
ATOM    113  H   THR B  11       8.072  -2.795   4.588  0.00  0.00    +0.000 HD
ATOM    114  CA  THR B  11       6.600  -1.313   4.927  0.00  0.00    +0.000 C 
ATOM    115  C   THR B  11       5.659  -1.673   6.071  0.00  0.00    +0.000 C 
ATOM    116  O   THR B  11       4.539  -1.157   6.099  0.00  0.00    +0.000 OA
ATOM    117  CB  THR B  11       5.974  -1.735   3.591  0.00  0.00    +0.000 C 
ATOM    118  OG1 THR B  11       6.105  -3.148   3.444  0.00  0.00    +0.000 OA
ATOM    119  HG1 THR B  11       5.216  -3.502   3.303  0.00  0.00    +0.000 HD
ATOM    120  CG2 THR B  11       6.682  -1.038   2.433  0.00  0.00    +0.000 C 
ATOM    121  N   SER B  12       6.070  -2.518   7.021  0.00  0.00    +0.000 N 
ATOM    122  H   SER B  12       7.028  -2.830   7.065  0.00  0.00    +0.000 HD
ATOM    123  CA  SER B  12       5.116  -2.967   8.026  0.00  0.00    +0.000 C 
ATOM    124  C   SER B  12       4.930  -1.929   9.129  0.00  0.00    +0.000 C 
ATOM    125  O   SER B  12       5.801  -1.094   9.403  0.00  0.00    +0.000 OA
ATOM    126  CB  SER B  12       5.538  -4.314   8.627  0.00  0.00    +0.000 C 
ATOM    127  OG  SER B  12       6.734  -4.214   9.393  0.00  0.00    +0.000 OA
ATOM    128  HG  SER B  12       7.486  -4.095   8.774  0.00  0.00    +0.000 HD
ATOM    129  N   ARG B  13       3.762  -2.004   9.772  0.00  0.00    +0.000 N 
ATOM    130  H   ARG B  13       3.088  -2.725   9.507  0.00  0.00    +0.000 HD
ATOM    131  CA  ARG B  13       3.506  -1.150  10.926  0.00  0.00    +0.000 C 
ATOM    132  C   ARG B  13       4.542  -1.372  12.021  0.00  0.00    +0.000 C 
ATOM    133  O   ARG B  13       5.028  -0.406  12.615  0.00  0.00    +0.000 OA
ATOM    134  CB  ARG B  13       2.109  -1.396  11.483  0.00  0.00    +0.000 C 
ATOM    135  CG  ARG B  13       0.951  -0.932  10.606  0.00  0.00    +0.000 C 
ATOM    136  CD  ARG B  13      -0.344  -1.447  11.215  0.00  0.00    +0.000 C 
ATOM    137  NE  ARG B  13      -0.328  -2.905  11.201  0.00  0.00    +0.000 N 
ATOM    138  HE  ARG B  13       0.251  -3.385  10.510  0.00  0.00    +0.000 HD
ATOM    139  CZ  ARG B  13      -1.050  -3.683  11.993  0.00  0.00    +0.000 C 
ATOM    140  NH1 ARG B  13      -1.864  -3.179  12.905  0.00  0.00    +0.000 N 
ATOM    141 HH11 ARG B  13      -2.520  -3.785  13.370  0.00  0.00    +0.000 HD
ATOM    142 HH12 ARG B  13      -2.016  -2.191  12.928  0.00  0.00    +0.000 HD
ATOM    143  NH2 ARG B  13      -0.928  -5.005  11.885  0.00  0.00    +0.000 N 
ATOM    144 HH21 ARG B  13      -0.424  -5.336  11.050  0.00  0.00    +0.000 HD
ATOM    145 HH22 ARG B  13      -1.497  -5.625  12.423  0.00  0.00    +0.000 HD
ATOM    146  N   VAL B  14       4.873  -2.629  12.327  0.00  0.00    +0.000 N 
ATOM    147  H   VAL B  14       4.445  -3.393  11.825  0.00  0.00    +0.000 HD
ATOM    148  CA  VAL B  14       5.826  -2.875  13.418  0.00  0.00    +0.000 C 
ATOM    149  C   VAL B  14       7.167  -2.228  13.097  0.00  0.00    +0.000 C 
ATOM    150  O   VAL B  14       7.820  -1.628  13.971  0.00  0.00    +0.000 OA
ATOM    151  CB  VAL B  14       5.979  -4.391  13.695  0.00  0.00    +0.000 C 
ATOM    152  CG1 VAL B  14       7.158  -4.633  14.672  0.00  0.00    +0.000 C 
ATOM    153  CG2 VAL B  14       4.702  -5.001  14.279  0.00  0.00    +0.000 C 
ATOM    154  N   TYR B  15       7.601  -2.333  11.839  0.00  0.00    +0.000 N 
ATOM    155  H   TYR B  15       7.045  -2.826  11.150  0.00  0.00    +0.000 HD
ATOM    156  CA  TYR B  15       8.862  -1.725  11.434  0.00  0.00    +0.000 C 
ATOM    157  C   TYR B  15       8.823  -0.213  11.590  0.00  0.00    +0.000 C 
ATOM    158  O   TYR B  15       9.734   0.386  12.176  0.00  0.00    +0.000 OA
ATOM    159  CB  TYR B  15       9.179  -2.095   9.988  0.00  0.00    +0.000 C 
ATOM    160  CG  TYR B  15      10.576  -1.736   9.544  0.00  0.00    +0.000 A 
ATOM    161  CD1 TYR B  15      10.947  -0.413   9.320  0.00  0.00    +0.000 A 
ATOM    162  CD2 TYR B  15      11.528  -2.735   9.327  0.00  0.00    +0.000 A 
ATOM    163  CE1 TYR B  15      12.222  -0.093   8.895  0.00  0.00    +0.000 A 
ATOM    164  CE2 TYR B  15      12.811  -2.419   8.900  0.00  0.00    +0.000 A 
ATOM    165  CZ  TYR B  15      13.151  -1.100   8.697  0.00  0.00    +0.000 A 
ATOM    166  OH  TYR B  15      14.427  -0.802   8.277  0.00  0.00    +0.000 OA
ATOM    167  HH  TYR B  15      14.778  -0.038   8.740  0.00  0.00    +0.000 HD
ATOM    168  N   LYS B  16       7.784   0.429  11.049  0.00  0.00    +0.000 N 
ATOM    169  H   LYS B  16       7.063  -0.101  10.564  0.00  0.00    +0.000 HD
ATOM    170  CA  LYS B  16       7.687   1.881  11.161  0.00  0.00    +0.000 C 
ATOM    171  C   LYS B  16       7.504   2.322  12.613  0.00  0.00    +0.000 C 
ATOM    172  O   LYS B  16       8.058   3.349  13.029  0.00  0.00    +0.000 OA
ATOM    173  CB  LYS B  16       6.550   2.380  10.262  0.00  0.00    +0.000 C 
ATOM    174  CG  LYS B  16       6.812   2.006   8.818  0.00  0.00    +0.000 C 
ATOM    175  CD  LYS B  16       6.052   2.872   7.852  0.00  0.00    +0.000 C 
ATOM    176  CE  LYS B  16       6.517   2.627   6.436  0.00  0.00    +0.000 C 
ATOM    177  NZ  LYS B  16       7.778   3.375   6.155  0.00  0.00    +0.000 N 
ATOM    178  HZ1 LYS B  16       8.043   3.271   5.184  0.00  0.00    +0.000 HD
ATOM    179  HZ2 LYS B  16       7.664   4.358   6.366  0.00  0.00    +0.000 HD
ATOM    180  HZ3 LYS B  16       8.528   2.996   6.721  0.00  0.00    +0.000 HD
ATOM    181  N   PHE B  17       6.726   1.576  13.393  0.00  0.00    +0.000 N 
ATOM    182  H   PHE B  17       6.238   0.777  13.015  0.00  0.00    +0.000 HD
ATOM    183  CA  PHE B  17       6.572   1.907  14.806  0.00  0.00    +0.000 C 
ATOM    184  C   PHE B  17       7.901   1.786  15.527  0.00  0.00    +0.000 C 
ATOM    185  O   PHE B  17       8.232   2.610  16.393  0.00  0.00    +0.000 OA
ATOM    186  CB  PHE B  17       5.547   0.995  15.459  0.00  0.00    +0.000 C 
ATOM    187  CG  PHE B  17       4.120   1.281  15.042  0.00  0.00    +0.000 A 
ATOM    188  CD1 PHE B  17       3.828   2.306  14.157  0.00  0.00    +0.000 A 
ATOM    189  CD2 PHE B  17       3.085   0.499  15.526  0.00  0.00    +0.000 A 
ATOM    190  CE1 PHE B  17       2.520   2.554  13.773  0.00  0.00    +0.000 A 
ATOM    191  CE2 PHE B  17       1.784   0.737  15.146  0.00  0.00    +0.000 A 
ATOM    192  CZ  PHE B  17       1.499   1.762  14.269  0.00  0.00    +0.000 A 
ATOM    193  N   CYS B  18       8.670   0.748  15.191  0.00  0.00    +0.000 N 
ATOM    194  H   CYS B  18       8.333   0.053  14.537  0.00  0.00    +0.000 HD
ATOM    195  CA  CYS B  18       9.997   0.602  15.787  0.00  0.00    +0.000 C 
ATOM    196  C   CYS B  18      10.854   1.824  15.501  0.00  0.00    +0.000 C 
ATOM    197  O   CYS B  18      11.520   2.348  16.401  0.00  0.00    +0.000 OA
ATOM    198  CB  CYS B  18      10.662  -0.656  15.251  0.00  0.00    +0.000 C 
ATOM    199  SG  CYS B  18      12.338  -0.918  15.944  0.00  0.00    +0.000 S 
ATOM    200  HG  CYS B  18      12.894   0.231  15.535  0.00  0.00    +0.000 HD
ATOM    201  N   NME B  19      10.820   2.311  14.252  0.00  0.00    +0.000 N 
ATOM    202  H   NME B  19      10.201   1.881  13.575  0.00  0.00    +0.000 HD
ATOM    203  C   NME B  19      11.616   3.474  13.879  0.00  0.00    +0.000 C 
TER 
REMARK  Name = /home/xianyang/aimnet2_score_pipelines/work/L1234-fixed-receptor-eint-20260921/L2/Q92793/prepared.pdb
REMARK                            x       y       z     vdW  Elec       q    Type
REMARK                         _______ _______ _______ _____ _____    ______ ____
ATOM      1  CH3 ACE C   1      -6.600   1.039   6.563  0.00  0.00    +0.000 C 
ATOM      2  C   ACE C   1      -5.119   0.692   6.600  0.00  0.00    +0.000 C 
ATOM      3  O   ACE C   1      -4.573   0.171   5.617  0.00  0.00    +0.000 OA
ATOM      4  N   ALA C   2      -4.446   0.976   7.727  0.00  0.00    +0.000 N 
ATOM      5  H   ALA C   2      -4.910   1.444   8.488  0.00  0.00    +0.000 HD
ATOM      6  CA  ALA C   2      -3.023   0.673   7.817  0.00  0.00    +0.000 C 
ATOM      7  C   ALA C   2      -2.782  -0.834   7.873  0.00  0.00    +0.000 C 
ATOM      8  O   ALA C   2      -1.819  -1.323   7.280  0.00  0.00    +0.000 OA
ATOM      9  CB  ALA C   2      -2.416   1.375   9.026  0.00  0.00    +0.000 C 
ATOM     10  N   GLU C   3      -3.669  -1.584   8.539  0.00  0.00    +0.000 N 
ATOM     11  H   GLU C   3      -4.438  -1.148   9.022  0.00  0.00    +0.000 HD
ATOM     12  CA  GLU C   3      -3.581  -3.049   8.519  0.00  0.00    +0.000 C 
ATOM     13  C   GLU C   3      -3.767  -3.596   7.116  0.00  0.00    +0.000 C 
ATOM     14  O   GLU C   3      -3.007  -4.467   6.678  0.00  0.00    +0.000 OA
ATOM     15  CB  GLU C   3      -4.608  -3.679   9.460  0.00  0.00    +0.000 C 
ATOM     16  CG  GLU C   3      -4.641  -3.083  10.849  0.00  0.00    +0.000 C 
ATOM     17  CD  GLU C   3      -5.792  -3.598  11.695  0.00  0.00    +0.000 C 
ATOM     18  OE1 GLU C   3      -6.730  -4.217  11.128  0.00  0.00    +0.000 OA
ATOM     19  OE2 GLU C   3      -5.757  -3.373  12.929  0.00  0.00    +0.000 OA
ATOM     20  N   VAL C   4      -4.750  -3.073   6.384  0.00  0.00    +0.000 N 
ATOM     21  H   VAL C   4      -5.346  -2.369   6.786  0.00  0.00    +0.000 HD
ATOM     22  CA  VAL C   4      -4.962  -3.507   5.010  0.00  0.00    +0.000 C 
ATOM     23  C   VAL C   4      -3.765  -3.139   4.145  0.00  0.00    +0.000 C 
ATOM     24  O   VAL C   4      -3.282  -3.946   3.343  0.00  0.00    +0.000 OA
ATOM     25  CB  VAL C   4      -6.257  -2.890   4.461  0.00  0.00    +0.000 C 
ATOM     26  CG1 VAL C   4      -6.384  -3.168   2.965  0.00  0.00    +0.000 C 
ATOM     27  CG2 VAL C   4      -7.451  -3.385   5.282  0.00  0.00    +0.000 C 
ATOM     28  N   PHE C   5      -3.288  -1.897   4.264  0.00  0.00    +0.000 N 
ATOM     29  H   PHE C   5      -3.714  -1.243   4.908  0.00  0.00    +0.000 HD
ATOM     30  CA  PHE C   5      -2.247  -1.434   3.354  0.00  0.00    +0.000 C 
ATOM     31  C   PHE C   5      -0.961  -2.221   3.557  0.00  0.00    +0.000 C 
ATOM     32  O   PHE C   5      -0.279  -2.563   2.592  0.00  0.00    +0.000 OA
ATOM     33  CB  PHE C   5      -1.988   0.057   3.560  0.00  0.00    +0.000 C 
ATOM     34  CG  PHE C   5      -1.000   0.637   2.579  0.00  0.00    +0.000 A 
ATOM     35  CD1 PHE C   5      -1.342   0.814   1.250  0.00  0.00    +0.000 A 
ATOM     36  CD2 PHE C   5       0.274   0.975   2.987  0.00  0.00    +0.000 A 
ATOM     37  CE1 PHE C   5      -0.423   1.371   0.350  0.00  0.00    +0.000 A 
ATOM     38  CE2 PHE C   5       1.197   1.507   2.106  0.00  0.00    +0.000 A 
ATOM     39  CZ  PHE C   5       0.852   1.707   0.773  0.00  0.00    +0.000 A 
ATOM     40  N   GLU C   6      -0.617  -2.518   4.812  0.00  0.00    +0.000 N 
ATOM     41  H   GLU C   6      -1.201  -2.219   5.586  0.00  0.00    +0.000 HD
ATOM     42  CA  GLU C   6       0.607  -3.263   5.089  0.00  0.00    +0.000 C 
ATOM     43  C   GLU C   6       0.616  -4.613   4.368  0.00  0.00    +0.000 C 
ATOM     44  O   GLU C   6       1.646  -5.032   3.820  0.00  0.00    +0.000 OA
ATOM     45  CB  GLU C   6       0.723  -3.416   6.606  0.00  0.00    +0.000 C 
ATOM     46  CG  GLU C   6       1.221  -4.715   7.135  0.00  0.00    +0.000 C 
ATOM     47  CD  GLU C   6       1.177  -4.699   8.637  0.00  0.00    +0.000 C 
ATOM     48  OE1 GLU C   6       2.097  -4.123   9.208  0.00  0.00    +0.000 OA
ATOM     49  OE2 GLU C   6       0.229  -5.254   9.244  0.00  0.00    +0.000 OA
ATOM     50  N   GLN C   7      -0.530  -5.290   4.331  0.00  0.00    +0.000 N 
ATOM     51  H   GLN C   7      -1.356  -4.893   4.761  0.00  0.00    +0.000 HD
ATOM     52  CA  GLN C   7      -0.617  -6.586   3.655  0.00  0.00    +0.000 C 
ATOM     53  C   GLN C   7      -0.544  -6.432   2.137  0.00  0.00    +0.000 C 
ATOM     54  O   GLN C   7       0.120  -7.227   1.454  0.00  0.00    +0.000 OA
ATOM     55  CB  GLN C   7      -1.909  -7.273   4.084  0.00  0.00    +0.000 C 
ATOM     56  CG  GLN C   7      -1.785  -7.806   5.499  0.00  0.00    +0.000 C 
ATOM     57  CD  GLN C   7      -3.102  -8.232   6.110  0.00  0.00    +0.000 C 
ATOM     58  OE1 GLN C   7      -4.129  -8.292   5.432  0.00  0.00    +0.000 OA
ATOM     59  NE2 GLN C   7      -3.082  -8.503   7.411  0.00  0.00    +0.000 N 
ATOM     60 HE21 GLN C   7      -3.981  -8.641   7.831  0.00  0.00    +0.000 HD
ATOM     61 HE22 GLN C   7      -2.242  -8.383   7.943  0.00  0.00    +0.000 HD
ATOM     62  N   NME C   8      -1.205  -5.410   1.591  0.00  0.00    +0.000 N 
ATOM     63  H   NME C   8      -1.690  -4.756   2.197  0.00  0.00    +0.000 HD
ATOM     64  C   NME C   8      -1.242  -5.236   0.137  0.00  0.00    +0.000 C 
TER 
