REMARK  Name = /data/user_data/xianyang/t3-aimnet-affinity-balanced/L1/P35354/pocket.pdb
REMARK                            x       y       z     vdW  Elec       q    Type
REMARK                         _______ _______ _______ _____ _____    ______ ____
ATOM      1  N   VAL A   1      14.816  59.309  24.182  0.00  0.00    +0.000 N 
ATOM      2  CA  VAL A   1      15.553  58.273  23.464  0.00  0.00    +0.000 C 
ATOM      3  C   VAL A   1      15.965  57.130  24.388  0.00  0.00    +0.000 C 
ATOM      4  O   VAL A   1      15.859  55.958  24.027  0.00  0.00    +0.000 OA
ATOM      5  CB  VAL A   1      16.814  58.863  22.786  0.00  0.00    +0.000 C 
ATOM      6  CG2 VAL A   1      17.716  57.763  22.229  0.00  0.00    +0.000 C 
ATOM      7  CG1 VAL A   1      16.410  59.839  21.687  0.00  0.00    +0.000 C 
ATOM      8  H   VAL A   1      14.558  60.054  23.534  0.00  0.00    +0.000 HD
ATOM      9  H   VAL A   1      15.403  59.691  24.924  0.00  0.00    +0.000 HD
ATOM     10  H   VAL A   1      13.972  58.906  24.589  0.00  0.00    +0.000 HD
TER 
REMARK  Name = /data/user_data/xianyang/t3-aimnet-affinity-balanced/L1/P35354/pocket.pdb
REMARK                            x       y       z     vdW  Elec       q    Type
REMARK                         _______ _______ _______ _____ _____    ______ ____
ATOM      1  N   ARG B   1      12.933  53.014  25.136  0.00  0.00    +0.000 N 
ATOM      2  CA  ARG B   1      13.396  51.715  24.655  0.00  0.00    +0.000 C 
ATOM      3  C   ARG B   1      13.657  50.741  25.798  0.00  0.00    +0.000 C 
ATOM      4  O   ARG B   1      13.574  49.526  25.615  0.00  0.00    +0.000 OA
ATOM      5  CB  ARG B   1      14.670  51.889  23.825  0.00  0.00    +0.000 C 
ATOM      6  CG  ARG B   1      14.511  52.831  22.644  0.00  0.00    +0.000 C 
ATOM      7  CD  ARG B   1      15.782  52.901  21.813  0.00  0.00    +0.000 C 
ATOM      8  NE  ARG B   1      15.621  53.738  20.625  0.00  0.00    +0.000 N 
ATOM      9  CZ  ARG B   1      15.097  53.317  19.477  0.00  0.00    +0.000 C 
ATOM     10  NH2 ARG B   1      14.669  52.067  19.353  0.00  0.00    +0.000 N 
ATOM     11  NH1 ARG B   1      14.998  54.149  18.450  0.00  0.00    +0.000 N 
ATOM     12  H   ARG B   1      12.771  53.633  24.341  0.00  0.00    +0.000 HD
ATOM     13  H   ARG B   1      13.641  53.423  25.746  0.00  0.00    +0.000 HD
ATOM     14  H   ARG B   1      12.064  52.894  25.656  0.00  0.00    +0.000 HD
ATOM     15  H   ARG B   1      15.920  54.675  20.678  0.00  0.00    +0.000 HD
ATOM     16  H   ARG B   1      14.282  51.761  18.501  0.00  0.00    +0.000 HD
ATOM     17  H   ARG B   1      14.738  51.445  20.113  0.00  0.00    +0.000 HD
ATOM     18  H   ARG B   1      14.610  53.838  17.600  0.00  0.00    +0.000 HD
ATOM     19  H   ARG B   1      15.312  55.078  18.537  0.00  0.00    +0.000 HD
TER 
REMARK  Name = /data/user_data/xianyang/t3-aimnet-affinity-balanced/L1/P35354/pocket.pdb
REMARK                            x       y       z     vdW  Elec       q    Type
REMARK                         _______ _______ _______ _____ _____    ______ ____
ATOM      1  N   PHE C   1      35.356  47.248  19.872  0.00  0.00    +0.000 N 
ATOM      2  CA  PHE C   1      34.490  47.586  20.992  0.00  0.00    +0.000 C 
ATOM      3  C   PHE C   1      33.581  46.423  21.407  0.00  0.00    +0.000 C 
ATOM      4  O   PHE C   1      33.548  46.049  22.579  0.00  0.00    +0.000 OA
ATOM      5  CB  PHE C   1      33.646  48.816  20.638  0.00  0.00    +0.000 C 
ATOM      6  CG  PHE C   1      32.532  49.094  21.607  0.00  0.00    +0.000 A 
ATOM      7  CD2 PHE C   1      32.807  49.480  22.910  0.00  0.00    +0.000 A 
ATOM      8  CD1 PHE C   1      31.206  48.986  21.207  0.00  0.00    +0.000 A 
ATOM      9  CE2 PHE C   1      31.782  49.742  23.803  0.00  0.00    +0.000 A 
ATOM     10  CE1 PHE C   1      30.173  49.245  22.094  0.00  0.00    +0.000 A 
ATOM     11  CZ  PHE C   1      30.459  49.624  23.394  0.00  0.00    +0.000 A 
ATOM     12  N   THR C   2      32.851  45.845  20.459  0.00  0.00    +0.000 N 
ATOM     13  CA  THR C   2      31.867  44.819  20.800  0.00  0.00    +0.000 C 
ATOM     14  C   THR C   2      32.484  43.477  21.199  0.00  0.00    +0.000 C 
ATOM     15  O   THR C   2      31.826  42.667  21.847  0.00  0.00    +0.000 OA
ATOM     16  CB  THR C   2      30.885  44.566  19.636  0.00  0.00    +0.000 C 
ATOM     17  OG1 THR C   2      31.596  44.090  18.490  0.00  0.00    +0.000 OA
ATOM     18  CG2 THR C   2      30.135  45.832  19.278  0.00  0.00    +0.000 C 
ATOM     19  H   PHE C   1      35.937  48.052  19.637  0.00  0.00    +0.000 HD
ATOM     20  H   PHE C   1      34.785  46.994  19.066  0.00  0.00    +0.000 HD
ATOM     21  H   PHE C   1      35.952  46.461  20.129  0.00  0.00    +0.000 HD
ATOM     22  H   THR C   2      32.974  46.110  19.519  0.00  0.00    +0.000 HD
ATOM     23  H   THR C   2      32.237  44.760  18.206  0.00  0.00    +0.000 HD
TER 
REMARK  Name = /data/user_data/xianyang/t3-aimnet-affinity-balanced/L1/P35354/pocket.pdb
REMARK                            x       y       z     vdW  Elec       q    Type
REMARK                         _______ _______ _______ _____ _____    ______ ____
ATOM      1  N   VAL D   1      31.249  56.080  22.260  0.00  0.00    +0.000 N 
ATOM      2  CA  VAL D   1      30.305  55.194  21.600  0.00  0.00    +0.000 C 
ATOM      3  C   VAL D   1      28.968  55.901  21.377  0.00  0.00    +0.000 C 
ATOM      4  O   VAL D   1      28.380  55.795  20.306  0.00  0.00    +0.000 OA
ATOM      5  CB  VAL D   1      30.095  53.890  22.406  0.00  0.00    +0.000 C 
ATOM      6  CG1 VAL D   1      28.892  53.098  21.888  0.00  0.00    +0.000 C 
ATOM      7  CG2 VAL D   1      31.350  53.022  22.331  0.00  0.00    +0.000 C 
ATOM      8  H   VAL D   1      31.365  56.928  21.705  0.00  0.00    +0.000 HD
ATOM      9  H   VAL D   1      32.149  55.609  22.353  0.00  0.00    +0.000 HD
ATOM     10  H   VAL D   1      30.896  56.325  23.185  0.00  0.00    +0.000 HD
TER 
REMARK  Name = /data/user_data/xianyang/t3-aimnet-affinity-balanced/L1/P35354/pocket.pdb
REMARK                            x       y       z     vdW  Elec       q    Type
REMARK                         _______ _______ _______ _____ _____    ______ ____
ATOM      1  N   TYR E   1      30.058  57.212  17.758  0.00  0.00    +0.000 N 
ATOM      2  CA  TYR E   1      29.767  55.944  17.089  0.00  0.00    +0.000 C 
ATOM      3  C   TYR E   1      28.278  55.792  16.781  0.00  0.00    +0.000 C 
ATOM      4  O   TYR E   1      27.892  55.692  15.617  0.00  0.00    +0.000 OA
ATOM      5  CB  TYR E   1      30.264  54.781  17.953  0.00  0.00    +0.000 C 
ATOM      6  CG  TYR E   1      29.990  53.391  17.427  0.00  0.00    +0.000 A 
ATOM      7  CD1 TYR E   1      30.878  52.768  16.562  0.00  0.00    +0.000 A 
ATOM      8  CD2 TYR E   1      28.865  52.685  17.830  0.00  0.00    +0.000 A 
ATOM      9  CE1 TYR E   1      30.641  51.487  16.095  0.00  0.00    +0.000 A 
ATOM     10  CE2 TYR E   1      28.619  51.406  17.370  0.00  0.00    +0.000 A 
ATOM     11  CZ  TYR E   1      29.511  50.809  16.503  0.00  0.00    +0.000 A 
ATOM     12  OH  TYR E   1      29.277  49.532  16.038  0.00  0.00    +0.000 OA
ATOM     13  N   VAL E   2      27.442  55.784  17.816  0.00  0.00    +0.000 N 
ATOM     14  CA  VAL E   2      26.001  55.669  17.616  0.00  0.00    +0.000 C 
ATOM     15  C   VAL E   2      25.483  56.887  16.859  0.00  0.00    +0.000 C 
ATOM     16  O   VAL E   2      24.552  56.779  16.056  0.00  0.00    +0.000 OA
ATOM     17  CB  VAL E   2      25.244  55.527  18.953  0.00  0.00    +0.000 C 
ATOM     18  CG1 VAL E   2      23.733  55.514  18.725  0.00  0.00    +0.000 C 
ATOM     19  CG2 VAL E   2      25.671  54.255  19.668  0.00  0.00    +0.000 C 
ATOM     20  H   TYR E   1      29.726  57.985  17.181  0.00  0.00    +0.000 HD
ATOM     21  H   TYR E   1      31.065  57.300  17.898  0.00  0.00    +0.000 HD
ATOM     22  H   TYR E   1      29.586  57.236  18.662  0.00  0.00    +0.000 HD
ATOM     23  H   TYR E   1      29.885  49.129  15.449  0.00  0.00    +0.000 HD
ATOM     24  H   VAL E   2      27.801  55.857  18.730  0.00  0.00    +0.000 HD
TER 
REMARK  Name = /data/user_data/xianyang/t3-aimnet-affinity-balanced/L1/P35354/pocket.pdb
REMARK                            x       y       z     vdW  Elec       q    Type
REMARK                         _______ _______ _______ _____ _____    ______ ____
ATOM      1  N   LEU F   1      26.071  56.207  13.271  0.00  0.00    +0.000 N 
ATOM      2  CA  LEU F   1      25.292  55.060  12.841  0.00  0.00    +0.000 C 
ATOM      3  C   LEU F   1      23.817  55.416  12.675  0.00  0.00    +0.000 C 
ATOM      4  O   LEU F   1      23.164  54.968  11.737  0.00  0.00    +0.000 OA
ATOM      5  CB  LEU F   1      25.452  53.917  13.848  0.00  0.00    +0.000 C 
ATOM      6  CG  LEU F   1      25.003  52.529  13.400  0.00  0.00    +0.000 C 
ATOM      7  CD1 LEU F   1      25.690  52.123  12.106  0.00  0.00    +0.000 C 
ATOM      8  CD2 LEU F   1      25.294  51.515  14.498  0.00  0.00    +0.000 C 
ATOM      9  N   SER F   2      23.303  56.234  13.585  0.00  0.00    +0.000 N 
ATOM     10  CA  SER F   2      21.893  56.593  13.583  0.00  0.00    +0.000 C 
ATOM     11  C   SER F   2      21.548  57.510  12.417  0.00  0.00    +0.000 C 
ATOM     12  O   SER F   2      20.423  57.497  11.921  0.00  0.00    +0.000 OA
ATOM     13  CB  SER F   2      21.516  57.279  14.894  0.00  0.00    +0.000 C 
ATOM     14  OG  SER F   2      22.057  58.590  14.942  0.00  0.00    +0.000 OA
ATOM     15  H   LEU F   1      25.961  56.965  12.597  0.00  0.00    +0.000 HD
ATOM     16  H   LEU F   1      27.055  55.946  13.331  0.00  0.00    +0.000 HD
ATOM     17  H   LEU F   1      25.744  56.516  14.187  0.00  0.00    +0.000 HD
ATOM     18  H   SER F   2      23.892  56.608  14.280  0.00  0.00    +0.000 HD
ATOM     19  H   SER F   2      23.024  58.543  14.885  0.00  0.00    +0.000 HD
TER 
REMARK  Name = /data/user_data/xianyang/t3-aimnet-affinity-balanced/L1/P35354/pocket.pdb
REMARK                            x       y       z     vdW  Elec       q    Type
REMARK                         _______ _______ _______ _____ _____    ______ ____
ATOM      1  N   TYR G   1      21.256  60.574  12.744  0.00  0.00    +0.000 N 
ATOM      2  CA  TYR G   1      20.427  61.628  13.322  0.00  0.00    +0.000 C 
ATOM      3  C   TYR G   1      21.054  63.003  13.165  0.00  0.00    +0.000 C 
ATOM      4  O   TYR G   1      22.275  63.157  13.248  0.00  0.00    +0.000 OA
ATOM      5  CB  TYR G   1      20.178  61.368  14.814  0.00  0.00    +0.000 C 
ATOM      6  CG  TYR G   1      19.300  60.177  15.120  0.00  0.00    +0.000 A 
ATOM      7  CD1 TYR G   1      18.595  59.526  14.119  0.00  0.00    +0.000 A 
ATOM      8  CD2 TYR G   1      19.174  59.707  16.420  0.00  0.00    +0.000 A 
ATOM      9  CE1 TYR G   1      17.794  58.440  14.403  0.00  0.00    +0.000 A 
ATOM     10  CE2 TYR G   1      18.373  58.620  16.711  0.00  0.00    +0.000 A 
ATOM     11  CZ  TYR G   1      17.687  57.993  15.698  0.00  0.00    +0.000 A 
ATOM     12  OH  TYR G   1      16.888  56.913  15.978  0.00  0.00    +0.000 OA
ATOM     13  H   TYR G   1      21.409  60.766  11.754  0.00  0.00    +0.000 HD
ATOM     14  H   TYR G   1      20.784  59.675  12.847  0.00  0.00    +0.000 HD
ATOM     15  H   TYR G   1      22.154  60.544  13.227  0.00  0.00    +0.000 HD
ATOM     16  H   TYR G   1      16.420  56.485  15.288  0.00  0.00    +0.000 HD
TER 
REMARK  Name = /data/user_data/xianyang/t3-aimnet-affinity-balanced/L1/P35354/pocket.pdb
REMARK                            x       y       z     vdW  Elec       q    Type
REMARK                         _______ _______ _______ _____ _____    ______ ____
ATOM      1  N   LEU H   1      23.164  63.362  19.961  0.00  0.00    +0.000 N 
ATOM      2  CA  LEU H   1      23.105  62.457  21.105  0.00  0.00    +0.000 C 
ATOM      3  C   LEU H   1      24.046  62.926  22.212  0.00  0.00    +0.000 C 
ATOM      4  O   LEU H   1      25.074  63.548  21.940  0.00  0.00    +0.000 OA
ATOM      5  CB  LEU H   1      23.458  61.030  20.675  0.00  0.00    +0.000 C 
ATOM      6  CG  LEU H   1      22.584  60.444  19.566  0.00  0.00    +0.000 C 
ATOM      7  CD1 LEU H   1      23.187  59.156  19.040  0.00  0.00    +0.000 C 
ATOM      8  CD2 LEU H   1      21.171  60.207  20.077  0.00  0.00    +0.000 C 
ATOM      9  H   LEU H   1      22.530  63.032  19.234  0.00  0.00    +0.000 HD
ATOM     10  H   LEU H   1      24.116  63.387  19.596  0.00  0.00    +0.000 HD
ATOM     11  H   LEU H   1      22.887  64.299  20.254  0.00  0.00    +0.000 HD
TER 
REMARK  Name = /data/user_data/xianyang/t3-aimnet-affinity-balanced/L1/P35354/pocket.pdb
REMARK                            x       y       z     vdW  Elec       q    Type
REMARK                         _______ _______ _______ _____ _____    ______ ____
ATOM      1  N   PHE I   1      21.683  39.810  20.501  0.00  0.00    +0.000 N 
ATOM      2  CA  PHE I   1      22.455  41.025  20.284  0.00  0.00    +0.000 C 
ATOM      3  C   PHE I   1      23.738  40.664  19.554  0.00  0.00    +0.000 C 
ATOM      4  O   PHE I   1      24.165  41.366  18.637  0.00  0.00    +0.000 OA
ATOM      5  CB  PHE I   1      22.773  41.731  21.600  0.00  0.00    +0.000 C 
ATOM      6  CG  PHE I   1      23.343  43.121  21.432  0.00  0.00    +0.000 A 
ATOM      7  CD1 PHE I   1      22.959  43.927  20.373  0.00  0.00    +0.000 A 
ATOM      8  CD2 PHE I   1      24.260  43.618  22.341  0.00  0.00    +0.000 A 
ATOM      9  CE1 PHE I   1      23.477  45.200  20.226  0.00  0.00    +0.000 A 
ATOM     10  CE2 PHE I   1      24.781  44.889  22.203  0.00  0.00    +0.000 A 
ATOM     11  CZ  PHE I   1      24.391  45.682  21.143  0.00  0.00    +0.000 A 
ATOM     12  H   PHE I   1      21.489  39.366  19.604  0.00  0.00    +0.000 HD
ATOM     13  H   PHE I   1      20.804  40.044  20.962  0.00  0.00    +0.000 HD
ATOM     14  H   PHE I   1      22.215  39.169  21.090  0.00  0.00    +0.000 HD
TER 
REMARK  Name = /data/user_data/xianyang/t3-aimnet-affinity-balanced/L1/P35354/pocket.pdb
REMARK                            x       y       z     vdW  Elec       q    Type
REMARK                         _______ _______ _______ _____ _____    ______ ____
ATOM      1  N   LEU J   1      22.849  39.602  15.765  0.00  0.00    +0.000 N 
ATOM      2  CA  LEU J   1      22.483  40.741  14.936  0.00  0.00    +0.000 C 
ATOM      3  C   LEU J   1      23.701  41.616  14.616  0.00  0.00    +0.000 C 
ATOM      4  O   LEU J   1      23.697  42.358  13.632  0.00  0.00    +0.000 OA
ATOM      5  CB  LEU J   1      21.358  41.532  15.629  0.00  0.00    +0.000 C 
ATOM      6  CG  LEU J   1      21.319  42.969  16.192  0.00  0.00    +0.000 C 
ATOM      7  CD2 LEU J   1      20.492  42.919  17.481  0.00  0.00    +0.000 C 
ATOM      8  CD1 LEU J   1      22.638  43.686  16.466  0.00  0.00    +0.000 C 
ATOM      9  N   TYR J   2      24.746  41.512  15.435  0.00  0.00    +0.000 N 
ATOM     10  CA  TYR J   2      25.939  42.334  15.262  0.00  0.00    +0.000 C 
ATOM     11  C   TYR J   2      26.992  41.680  14.356  0.00  0.00    +0.000 C 
ATOM     12  O   TYR J   2      28.131  42.144  14.284  0.00  0.00    +0.000 OA
ATOM     13  CB  TYR J   2      26.561  42.648  16.623  0.00  0.00    +0.000 C 
ATOM     14  CG  TYR J   2      26.819  44.119  16.842  0.00  0.00    +0.000 A 
ATOM     15  CD1 TYR J   2      27.785  44.790  16.105  0.00  0.00    +0.000 A 
ATOM     16  CD2 TYR J   2      26.102  44.836  17.792  0.00  0.00    +0.000 A 
ATOM     17  CE1 TYR J   2      28.026  46.134  16.306  0.00  0.00    +0.000 A 
ATOM     18  CE2 TYR J   2      26.338  46.181  18.002  0.00  0.00    +0.000 A 
ATOM     19  CZ  TYR J   2      27.300  46.825  17.258  0.00  0.00    +0.000 A 
ATOM     20  OH  TYR J   2      27.538  48.165  17.462  0.00  0.00    +0.000 OA
ATOM     21  H   LEU J   1      23.594  39.075  15.309  0.00  0.00    +0.000 HD
ATOM     22  H   LEU J   1      22.036  38.999  15.893  0.00  0.00    +0.000 HD
ATOM     23  H   LEU J   1      23.173  39.933  16.674  0.00  0.00    +0.000 HD
ATOM     24  H   TYR J   2      24.713  40.864  16.176  0.00  0.00    +0.000 HD
ATOM     25  H   TYR J   2      28.192  48.607  16.957  0.00  0.00    +0.000 HD
TER 
REMARK  Name = /data/user_data/xianyang/t3-aimnet-affinity-balanced/L1/P35354/pocket.pdb
REMARK                            x       y       z     vdW  Elec       q    Type
REMARK                         _______ _______ _______ _____ _____    ______ ____
ATOM      1  N   TRP K   1      28.158  41.957  11.395  0.00  0.00    +0.000 N 
ATOM      2  CA  TRP K   1      28.121  42.904  10.285  0.00  0.00    +0.000 C 
ATOM      3  C   TRP K   1      29.233  42.618   9.276  0.00  0.00    +0.000 C 
ATOM      4  O   TRP K   1      30.019  43.498   8.926  0.00  0.00    +0.000 OA
ATOM      5  CB  TRP K   1      28.229  44.336  10.815  0.00  0.00    +0.000 C 
ATOM      6  CG  TRP K   1      27.066  44.744  11.682  0.00  0.00    +0.000 C 
ATOM      7  CD1 TRP K   1      25.899  44.059  11.863  0.00  0.00    +0.000 C 
ATOM      8  CD2 TRP K   1      26.961  45.929  12.484  0.00  0.00    +0.000 C 
ATOM      9  NE1 TRP K   1      25.076  44.743  12.723  0.00  0.00    +0.000 NA
ATOM     10  CE2 TRP K   1      25.705  45.893  13.119  0.00  0.00    +0.000 C 
ATOM     11  CE3 TRP K   1      27.809  47.015  12.725  0.00  0.00    +0.000 C 
ATOM     12  CZ2 TRP K   1      25.274  46.897  13.982  0.00  0.00    +0.000 C 
ATOM     13  CZ3 TRP K   1      27.377  48.015  13.581  0.00  0.00    +0.000 C 
ATOM     14  CH2 TRP K   1      26.121  47.949  14.199  0.00  0.00    +0.000 C 
ATOM     15  H   TRP K   1      28.086  41.006  11.033  0.00  0.00    +0.000 HD
ATOM     16  H   TRP K   1      27.378  42.141  12.025  0.00  0.00    +0.000 HD
ATOM     17  H   TRP K   1      29.037  42.062  11.902  0.00  0.00    +0.000 HD
TER 
REMARK  Name = /data/user_data/xianyang/t3-aimnet-affinity-balanced/L1/P35354/pocket.pdb
REMARK                            x       y       z     vdW  Elec       q    Type
REMARK                         _______ _______ _______ _____ _____    ______ ____
ATOM      1  N   PHE L   1      21.315  50.270   7.435  0.00  0.00    +0.000 N 
ATOM      2  CA  PHE L   1      20.473  49.224   8.023  0.00  0.00    +0.000 C 
ATOM      3  C   PHE L   1      19.027  49.359   7.603  0.00  0.00    +0.000 C 
ATOM      4  O   PHE L   1      18.638  50.348   6.990  0.00  0.00    +0.000 OA
ATOM      5  CB  PHE L   1      20.508  49.272   9.559  0.00  0.00    +0.000 C 
ATOM      6  CG  PHE L   1      21.851  49.026  10.159  0.00  0.00    +0.000 A 
ATOM      7  CD1 PHE L   1      22.748  48.149   9.576  0.00  0.00    +0.000 A 
ATOM      8  CD2 PHE L   1      22.214  49.671  11.329  0.00  0.00    +0.000 A 
ATOM      9  CE1 PHE L   1      23.990  47.927  10.149  0.00  0.00    +0.000 A 
ATOM     10  CE2 PHE L   1      23.450  49.453  11.904  0.00  0.00    +0.000 A 
ATOM     11  CZ  PHE L   1      24.340  48.584  11.314  0.00  0.00    +0.000 A 
ATOM     12  H   PHE L   1      21.270  50.211   6.418  0.00  0.00    +0.000 HD
ATOM     13  H   PHE L   1      22.280  50.142   7.741  0.00  0.00    +0.000 HD
ATOM     14  H   PHE L   1      20.981  51.185   7.738  0.00  0.00    +0.000 HD
TER 
REMARK  Name = /data/user_data/xianyang/t3-aimnet-affinity-balanced/L1/P35354/pocket.pdb
REMARK                            x       y       z     vdW  Elec       q    Type
REMARK                         _______ _______ _______ _____ _____    ______ ____
ATOM      1  N   MET M   1      16.949  45.974  12.405  0.00  0.00    +0.000 N 
ATOM      2  CA  MET M   1      18.293  46.019  12.970  0.00  0.00    +0.000 C 
ATOM      3  C   MET M   1      18.394  47.108  14.032  0.00  0.00    +0.000 C 
ATOM      4  O   MET M   1      18.967  46.898  15.104  0.00  0.00    +0.000 OA
ATOM      5  CB  MET M   1      19.326  46.264  11.869  0.00  0.00    +0.000 C 
ATOM      6  CG  MET M   1      20.765  46.328  12.361  0.00  0.00    +0.000 C 
ATOM      7  SD  MET M   1      21.414  44.705  12.798  0.00  0.00    +0.000 S 
ATOM      8  CE  MET M   1      21.990  44.148  11.188  0.00  0.00    +0.000 C 
ATOM      9  N   VAL M   2      17.823  48.269  13.727  0.00  0.00    +0.000 N 
ATOM     10  CA  VAL M   2      17.877  49.414  14.628  0.00  0.00    +0.000 C 
ATOM     11  C   VAL M   2      16.976  49.240  15.851  0.00  0.00    +0.000 C 
ATOM     12  O   VAL M   2      17.376  49.546  16.972  0.00  0.00    +0.000 OA
ATOM     13  CB  VAL M   2      17.474  50.710  13.895  0.00  0.00    +0.000 C 
ATOM     14  CG2 VAL M   2      17.377  51.886  14.869  0.00  0.00    +0.000 C 
ATOM     15  CG1 VAL M   2      18.473  51.013  12.800  0.00  0.00    +0.000 C 
ATOM     16  N   GLU M   3      15.758  48.763  15.630  0.00  0.00    +0.000 N 
ATOM     17  CA  GLU M   3      14.767  48.697  16.696  0.00  0.00    +0.000 C 
ATOM     18  C   GLU M   3      15.060  47.574  17.686  0.00  0.00    +0.000 C 
ATOM     19  O   GLU M   3      14.603  47.614  18.827  0.00  0.00    +0.000 OA
ATOM     20  CB  GLU M   3      13.373  48.521  16.097  0.00  0.00    +0.000 C 
ATOM     21  CG  GLU M   3      12.893  49.731  15.302  0.00  0.00    +0.000 C 
ATOM     22  CD  GLU M   3      12.831  50.991  16.145  0.00  0.00    +0.000 C 
ATOM     23  OE2 GLU M   3      12.217  50.949  17.233  0.00  0.00    +0.000 OA
ATOM     24  OE1 GLU M   3      13.406  52.019  15.725  0.00  0.00    +0.000 OA
ATOM     25  N   VAL M   4      15.826  46.580  17.248  0.00  0.00    +0.000 N 
ATOM     26  CA  VAL M   4      16.228  45.479  18.116  0.00  0.00    +0.000 C 
ATOM     27  C   VAL M   4      17.577  45.771  18.771  0.00  0.00    +0.000 C 
ATOM     28  O   VAL M   4      17.774  45.496  19.947  0.00  0.00    +0.000 OA
ATOM     29  CB  VAL M   4      16.310  44.153  17.334  0.00  0.00    +0.000 C 
ATOM     30  CG2 VAL M   4      16.868  43.033  18.209  0.00  0.00    +0.000 C 
ATOM     31  CG1 VAL M   4      14.938  43.778  16.803  0.00  0.00    +0.000 C 
ATOM     32  N   GLY M   5      18.501  46.333  18.004  0.00  0.00    +0.000 N 
ATOM     33  CA  GLY M   5      19.842  46.579  18.495  0.00  0.00    +0.000 C 
ATOM     34  C   GLY M   5      19.937  47.726  19.483  0.00  0.00    +0.000 C 
ATOM     35  O   GLY M   5      20.644  47.630  20.490  0.00  0.00    +0.000 OA
ATOM     36  N   ALA M   6      19.227  48.812  19.200  0.00  0.00    +0.000 N 
ATOM     37  CA  ALA M   6      19.333  50.030  20.002  0.00  0.00    +0.000 C 
ATOM     38  C   ALA M   6      19.047  49.796  21.486  0.00  0.00    +0.000 C 
ATOM     39  O   ALA M   6      19.806  50.268  22.334  0.00  0.00    +0.000 OA
ATOM     40  CB  ALA M   6      18.405  51.102  19.451  0.00  0.00    +0.000 C 
ATOM     41  N   PRO M   7      17.957  49.075  21.814  0.00  0.00    +0.000 N 
ATOM     42  CA  PRO M   7      17.706  48.845  23.245  0.00  0.00    +0.000 C 
ATOM     43  C   PRO M   7      18.784  47.990  23.922  0.00  0.00    +0.000 C 
ATOM     44  O   PRO M   7      19.152  48.275  25.061  0.00  0.00    +0.000 OA
ATOM     45  CB  PRO M   7      16.342  48.135  23.259  0.00  0.00    +0.000 C 
ATOM     46  CG  PRO M   7      16.143  47.629  21.876  0.00  0.00    +0.000 C 
ATOM     47  CD  PRO M   7      16.841  48.593  20.980  0.00  0.00    +0.000 C 
ATOM     48  H   MET M   1      16.902  45.240  11.698  0.00  0.00    +0.000 HD
ATOM     49  H   MET M   1      16.730  46.874  11.977  0.00  0.00    +0.000 HD
ATOM     50  H   MET M   1      16.275  45.777  13.145  0.00  0.00    +0.000 HD
ATOM     51  H   VAL M   2      17.350  48.358  12.868  0.00  0.00    +0.000 HD
ATOM     52  H   GLU M   3      15.519  48.448  14.728  0.00  0.00    +0.000 HD
ATOM     53  H   VAL M   4      16.130  46.587  16.312  0.00  0.00    +0.000 HD
ATOM     54  H   GLY M   5      18.271  46.589  17.081  0.00  0.00    +0.000 HD
ATOM     55  H   ALA M   6      18.613  48.797  18.430  0.00  0.00    +0.000 HD
TER 
REMARK  Name = /data/user_data/xianyang/t3-aimnet-affinity-balanced/L1/P35354/pocket.pdb
REMARK                            x       y       z     vdW  Elec       q    Type
REMARK                         _______ _______ _______ _____ _____    ______ ____
ATOM      1  N   SER N   1      21.916  47.946  23.019  0.00  0.00    +0.000 N 
ATOM      2  CA  SER N   1      23.097  48.795  23.093  0.00  0.00    +0.000 C 
ATOM      3  C   SER N   1      23.012  49.811  24.226  0.00  0.00    +0.000 C 
ATOM      4  O   SER N   1      23.938  49.928  25.025  0.00  0.00    +0.000 OA
ATOM      5  CB  SER N   1      23.310  49.530  21.773  0.00  0.00    +0.000 C 
ATOM      6  OG  SER N   1      24.327  50.504  21.910  0.00  0.00    +0.000 OA
ATOM      7  N   LEU N   2      21.909  50.552  24.284  0.00  0.00    +0.000 N 
ATOM      8  CA  LEU N   2      21.754  51.605  25.283  0.00  0.00    +0.000 C 
ATOM      9  C   LEU N   2      21.739  51.036  26.697  0.00  0.00    +0.000 C 
ATOM     10  O   LEU N   2      22.196  51.680  27.643  0.00  0.00    +0.000 OA
ATOM     11  CB  LEU N   2      20.473  52.399  25.025  0.00  0.00    +0.000 C 
ATOM     12  CG  LEU N   2      20.464  53.235  23.742  0.00  0.00    +0.000 C 
ATOM     13  CD1 LEU N   2      19.124  53.933  23.560  0.00  0.00    +0.000 C 
ATOM     14  CD2 LEU N   2      21.590  54.255  23.753  0.00  0.00    +0.000 C 
ATOM     15  H   SER N   1      22.020  47.286  22.249  0.00  0.00    +0.000 HD
ATOM     16  H   SER N   1      21.091  48.524  22.862  0.00  0.00    +0.000 HD
ATOM     17  H   SER N   1      21.810  47.433  23.894  0.00  0.00    +0.000 HD
ATOM     18  H   SER N   1      25.158  50.071  22.162  0.00  0.00    +0.000 HD
ATOM     19  H   LEU N   2      21.183  50.387  23.640  0.00  0.00    +0.000 HD
TER 
REMARK  Name = /data/user_data/xianyang/t3-aimnet-affinity-balanced/L1/P35354/pocket.pdb
REMARK                            x       y       z     vdW  Elec       q    Type
REMARK                         _______ _______ _______ _____ _____    ______ ____
ATOM      1  N   LEU O   1      25.277  50.405  27.771  0.00  0.00    +0.000 N 
ATOM      2  CA  LEU O   1      26.027  51.635  27.972  0.00  0.00    +0.000 C 
ATOM      3  C   LEU O   1      25.608  52.338  29.261  0.00  0.00    +0.000 C 
ATOM      4  O   LEU O   1      26.437  52.580  30.141  0.00  0.00    +0.000 OA
ATOM      5  CB  LEU O   1      25.843  52.570  26.774  0.00  0.00    +0.000 C 
ATOM      6  CG  LEU O   1      26.429  52.043  25.460  0.00  0.00    +0.000 C 
ATOM      7  CD1 LEU O   1      25.922  52.852  24.272  0.00  0.00    +0.000 C 
ATOM      8  CD2 LEU O   1      27.954  52.051  25.518  0.00  0.00    +0.000 C 
ATOM      9  H   LEU O   1      25.579  49.960  26.904  0.00  0.00    +0.000 HD
ATOM     10  H   LEU O   1      24.281  50.619  27.714  0.00  0.00    +0.000 HD
ATOM     11  H   LEU O   1      25.445  49.773  28.554  0.00  0.00    +0.000 HD
TER 
