REMARK  Name = /data/user_data/xianyang/t3-aimnet-affinity-balanced/L2/O75460/pocket.pdb
REMARK                            x       y       z     vdW  Elec       q    Type
REMARK                         _______ _______ _______ _____ _____    ______ ____
ATOM      1  N   VAL A   1      20.991  42.794  31.153  0.00  0.00    +0.000 N 
ATOM      2  CA  VAL A   1      21.101  42.298  29.790  0.00  0.00    +0.000 C 
ATOM      3  C   VAL A   1      21.150  40.784  29.856  0.00  0.00    +0.000 C 
ATOM      4  O   VAL A   1      22.043  40.217  30.491  0.00  0.00    +0.000 OA
ATOM      5  CB  VAL A   1      22.341  42.863  29.094  0.00  0.00    +0.000 C 
ATOM      6  CG1 VAL A   1      22.628  42.071  27.858  0.00  0.00    +0.000 C 
ATOM      7  CG2 VAL A   1      22.133  44.357  28.771  0.00  0.00    +0.000 C 
ATOM      8  N   LEU A   2      20.178  40.125  29.227  0.00  0.00    +0.000 N 
ATOM      9  CA  LEU A   2      20.213  38.671  29.143  0.00  0.00    +0.000 C 
ATOM     10  C   LEU A   2      21.021  38.150  27.960  0.00  0.00    +0.000 C 
ATOM     11  O   LEU A   2      21.418  36.983  27.980  0.00  0.00    +0.000 OA
ATOM     12  CB  LEU A   2      18.797  38.105  29.063  0.00  0.00    +0.000 C 
ATOM     13  CG  LEU A   2      17.914  38.600  30.203  0.00  0.00    +0.000 C 
ATOM     14  CD1 LEU A   2      16.501  38.066  30.040  0.00  0.00    +0.000 C 
ATOM     15  CD2 LEU A   2      18.526  38.193  31.529  0.00  0.00    +0.000 C 
ATOM     16  N   GLY A   3      21.280  38.964  26.944  0.00  0.00    +0.000 N 
ATOM     17  CA  GLY A   3      22.026  38.492  25.797  0.00  0.00    +0.000 C 
ATOM     18  C   GLY A   3      21.802  39.362  24.575  0.00  0.00    +0.000 C 
ATOM     19  O   GLY A   3      21.269  40.471  24.658  0.00  0.00    +0.000 OA
ATOM     20  N   HIS A   4      22.228  38.815  23.433  0.00  0.00    +0.000 N 
ATOM     21  CA  HIS A   4      22.194  39.484  22.140  0.00  0.00    +0.000 C 
ATOM     22  C   HIS A   4      21.649  38.533  21.081  0.00  0.00    +0.000 C 
ATOM     23  O   HIS A   4      21.438  37.342  21.331  0.00  0.00    +0.000 OA
ATOM     24  CB  HIS A   4      23.587  39.965  21.735  0.00  0.00    +0.000 C 
ATOM     25  CG  HIS A   4      24.269  40.784  22.782  0.00  0.00    +0.000 A 
ATOM     26  ND1 HIS A   4      24.615  40.280  24.018  0.00  0.00    +0.000 N 
ATOM     27  CD2 HIS A   4      24.682  42.073  22.770  0.00  0.00    +0.000 A 
ATOM     28  CE1 HIS A   4      25.199  41.230  24.727  0.00  0.00    +0.000 A 
ATOM     29  NE2 HIS A   4      25.255  42.327  23.992  0.00  0.00    +0.000 NA
ATOM     30  N   GLY A   5      21.445  39.069  19.875  0.00  0.00    +0.000 N 
ATOM     31  CA  GLY A   5      21.000  38.269  18.747  0.00  0.00    +0.000 C 
ATOM     32  C   GLY A   5      21.931  38.359  17.554  0.00  0.00    +0.000 C 
ATOM     33  O   GLY A   5      22.347  37.333  17.007  0.00  0.00    +0.000 OA
ATOM     34  H   VAL A   1      20.956  43.813  31.142  0.00  0.00    +0.000 HD
ATOM     35  H   VAL A   1      21.800  42.488  31.693  0.00  0.00    +0.000 HD
ATOM     36  H   VAL A   1      20.140  42.429  31.580  0.00  0.00    +0.000 HD
ATOM     37  H   LEU A   2      19.433  40.622  28.818  0.00  0.00    +0.000 HD
ATOM     38  H   GLY A   3      20.962  39.895  26.971  0.00  0.00    +0.000 HD
ATOM     39  H   HIS A   4      22.589  37.900  23.468  0.00  0.00    +0.000 HD
ATOM     40  H   HIS A   4      24.453  39.358  24.324  0.00  0.00    +0.000 HD
ATOM     41  H   GLY A   5      21.600  40.033  19.747  0.00  0.00    +0.000 HD
TER 
REMARK  Name = /data/user_data/xianyang/t3-aimnet-affinity-balanced/L2/O75460/pocket.pdb
REMARK                            x       y       z     vdW  Elec       q    Type
REMARK                         _______ _______ _______ _____ _____    ______ ____
ATOM      1  N   VAL B   1      18.854  41.798  24.438  0.00  0.00    +0.000 N 
ATOM      2  CA  VAL B   1      17.766  41.198  25.204  0.00  0.00    +0.000 C 
ATOM      3  C   VAL B   1      17.900  41.569  26.677  0.00  0.00    +0.000 C 
ATOM      4  O   VAL B   1      18.935  41.309  27.303  0.00  0.00    +0.000 OA
ATOM      5  CB  VAL B   1      17.727  39.666  25.050  0.00  0.00    +0.000 C 
ATOM      6  CG2 VAL B   1      16.622  39.111  25.924  0.00  0.00    +0.000 C 
ATOM      7  CG1 VAL B   1      17.518  39.278  23.597  0.00  0.00    +0.000 C 
ATOM      8  N   TYR B   2      16.837  42.133  27.240  0.00  0.00    +0.000 N 
ATOM      9  CA  TYR B   2      16.818  42.539  28.634  0.00  0.00    +0.000 C 
ATOM     10  C   TYR B   2      15.813  41.718  29.421  0.00  0.00    +0.000 C 
ATOM     11  O   TYR B   2      14.822  41.225  28.868  0.00  0.00    +0.000 OA
ATOM     12  CB  TYR B   2      16.453  44.019  28.797  0.00  0.00    +0.000 C 
ATOM     13  CG  TYR B   2      17.196  44.983  27.898  0.00  0.00    +0.000 A 
ATOM     14  CD2 TYR B   2      18.450  45.483  28.251  0.00  0.00    +0.000 A 
ATOM     15  CD1 TYR B   2      16.629  45.426  26.715  0.00  0.00    +0.000 A 
ATOM     16  CE2 TYR B   2      19.122  46.383  27.431  0.00  0.00    +0.000 A 
ATOM     17  CE1 TYR B   2      17.291  46.332  25.895  0.00  0.00    +0.000 A 
ATOM     18  CZ  TYR B   2      18.535  46.803  26.253  0.00  0.00    +0.000 A 
ATOM     19  OH  TYR B   2      19.177  47.693  25.419  0.00  0.00    +0.000 OA
ATOM     20  H   VAL B   1      18.757  41.545  23.455  0.00  0.00    +0.000 HD
ATOM     21  H   VAL B   1      19.748  41.455  24.791  0.00  0.00    +0.000 HD
ATOM     22  H   VAL B   1      18.818  42.813  24.533  0.00  0.00    +0.000 HD
ATOM     23  H   TYR B   2      16.033  42.281  26.692  0.00  0.00    +0.000 HD
ATOM     24  H   TYR B   2      18.767  47.969  24.623  0.00  0.00    +0.000 HD
TER 
REMARK  Name = /data/user_data/xianyang/t3-aimnet-affinity-balanced/L2/O75460/pocket.pdb
REMARK                            x       y       z     vdW  Elec       q    Type
REMARK                         _______ _______ _______ _____ _____    ______ ____
ATOM      1  N   ALA C   1      11.428  38.209  28.938  0.00  0.00    +0.000 N 
ATOM      2  CA  ALA C   1      12.611  38.709  28.269  0.00  0.00    +0.000 C 
ATOM      3  C   ALA C   1      12.165  39.597  27.117  0.00  0.00    +0.000 C 
ATOM      4  O   ALA C   1      11.137  39.348  26.482  0.00  0.00    +0.000 OA
ATOM      5  CB  ALA C   1      13.473  37.561  27.756  0.00  0.00    +0.000 C 
ATOM      6  N   VAL C   2      12.939  40.641  26.853  0.00  0.00    +0.000 N 
ATOM      7  CA  VAL C   2      12.531  41.707  25.949  0.00  0.00    +0.000 C 
ATOM      8  C   VAL C   2      13.663  41.944  24.964  0.00  0.00    +0.000 C 
ATOM      9  O   VAL C   2      14.718  42.475  25.340  0.00  0.00    +0.000 OA
ATOM     10  CB  VAL C   2      12.195  42.996  26.706  0.00  0.00    +0.000 C 
ATOM     11  CG1 VAL C   2      11.850  44.092  25.729  0.00  0.00    +0.000 C 
ATOM     12  CG2 VAL C   2      11.065  42.745  27.698  0.00  0.00    +0.000 C 
ATOM     13  N   LYS C   3      13.450  41.559  23.709  0.00  0.00    +0.000 N 
ATOM     14  CA  LYS C   3      14.453  41.727  22.667  0.00  0.00    +0.000 C 
ATOM     15  C   LYS C   3      14.211  43.056  21.967  0.00  0.00    +0.000 C 
ATOM     16  O   LYS C   3      13.081  43.364  21.576  0.00  0.00    +0.000 OA
ATOM     17  CB  LYS C   3      14.396  40.560  21.675  0.00  0.00    +0.000 C 
ATOM     18  CG  LYS C   3      15.570  40.459  20.690  0.00  0.00    +0.000 C 
ATOM     19  CD  LYS C   3      15.430  39.212  19.801  0.00  0.00    +0.000 C 
ATOM     20  CE  LYS C   3      16.682  38.929  18.950  0.00  0.00    +0.000 C 
ATOM     21  NZ  LYS C   3      16.868  37.478  18.598  0.00  0.00    +0.000 N 
ATOM     22  H   ALA C   1      10.869  38.994  29.272  0.00  0.00    +0.000 HD
ATOM     23  H   ALA C   1      11.705  37.628  29.729  0.00  0.00    +0.000 HD
ATOM     24  H   ALA C   1      10.877  37.653  28.284  0.00  0.00    +0.000 HD
ATOM     25  H   VAL C   2      13.822  40.697  27.284  0.00  0.00    +0.000 HD
ATOM     26  H   LYS C   3      12.586  41.147  23.477  0.00  0.00    +0.000 HD
ATOM     27  H   LYS C   3      16.080  37.161  18.033  0.00  0.00    +0.000 HD
ATOM     28  H   LYS C   3      16.917  36.924  19.453  0.00  0.00    +0.000 HD
ATOM     29  H   LYS C   3      17.733  37.365  18.069  0.00  0.00    +0.000 HD
TER 
REMARK  Name = /data/user_data/xianyang/t3-aimnet-affinity-balanced/L2/O75460/pocket.pdb
REMARK                            x       y       z     vdW  Elec       q    Type
REMARK                         _______ _______ _______ _____ _____    ______ ____
ATOM      1  N   ILE D   1      14.870  45.419  18.773  0.00  0.00    +0.000 N 
ATOM      2  CA  ILE D   1      15.132  45.210  17.360  0.00  0.00    +0.000 C 
ATOM      3  C   ILE D   1      14.915  46.549  16.673  0.00  0.00    +0.000 C 
ATOM      4  O   ILE D   1      14.132  47.383  17.138  0.00  0.00    +0.000 OA
ATOM      5  CB  ILE D   1      14.234  44.073  16.781  0.00  0.00    +0.000 C 
ATOM      6  CG1 ILE D   1      14.853  43.484  15.512  0.00  0.00    +0.000 C 
ATOM      7  CG2 ILE D   1      12.783  44.527  16.562  0.00  0.00    +0.000 C 
ATOM      8  CD1 ILE D   1      16.252  42.927  15.731  0.00  0.00    +0.000 C 
ATOM      9  H   ILE D   1      15.470  46.166  19.123  0.00  0.00    +0.000 HD
ATOM     10  H   ILE D   1      15.064  44.559  19.286  0.00  0.00    +0.000 HD
ATOM     11  H   ILE D   1      13.892  45.679  18.903  0.00  0.00    +0.000 HD
TER 
REMARK  Name = /data/user_data/xianyang/t3-aimnet-affinity-balanced/L2/O75460/pocket.pdb
REMARK                            x       y       z     vdW  Elec       q    Type
REMARK                         _______ _______ _______ _____ _____    ______ ____
ATOM      1  N   ALA E   1      11.144  42.281  10.076  0.00  0.00    +0.000 N 
ATOM      2  CA  ALA E   1      10.946  41.196  11.025  0.00  0.00    +0.000 C 
ATOM      3  C   ALA E   1       9.474  40.912  11.308  0.00  0.00    +0.000 C 
ATOM      4  O   ALA E   1       9.167  40.032  12.118  0.00  0.00    +0.000 OA
ATOM      5  CB  ALA E   1      11.677  41.511  12.330  0.00  0.00    +0.000 C 
ATOM      6  H   ALA E   1      10.655  42.066   9.207  0.00  0.00    +0.000 HD
ATOM      7  H   ALA E   1      12.140  42.390   9.887  0.00  0.00    +0.000 HD
ATOM      8  H   ALA E   1      10.776  43.147  10.469  0.00  0.00    +0.000 HD
TER 
REMARK  Name = /data/user_data/xianyang/t3-aimnet-affinity-balanced/L2/O75460/pocket.pdb
REMARK                            x       y       z     vdW  Elec       q    Type
REMARK                         _______ _______ _______ _____ _____    ______ ____
ATOM      1  N   GLU F   1       8.217  37.374  10.344  0.00  0.00    +0.000 N 
ATOM      2  CA  GLU F   1       8.689  36.295  11.188  0.00  0.00    +0.000 C 
ATOM      3  C   GLU F   1       8.122  36.385  12.591  0.00  0.00    +0.000 C 
ATOM      4  O   GLU F   1       7.932  35.347  13.232  0.00  0.00    +0.000 OA
ATOM      5  CB  GLU F   1      10.222  36.269  11.195  0.00  0.00    +0.000 C 
ATOM      6  CG  GLU F   1      10.819  35.774   9.852  0.00  0.00    +0.000 C 
ATOM      7  CD  GLU F   1      10.719  36.813   8.725  0.00  0.00    +0.000 C 
ATOM      8  OE1 GLU F   1      10.396  36.442   7.564  0.00  0.00    +0.000 OA
ATOM      9  OE2 GLU F   1      10.967  38.003   9.012  0.00  0.00    +0.000 OA
ATOM     10  N   VAL F   2       7.810  37.592  13.072  0.00  0.00    +0.000 N 
ATOM     11  CA  VAL F   2       7.048  37.699  14.314  0.00  0.00    +0.000 C 
ATOM     12  C   VAL F   2       5.652  37.114  14.125  0.00  0.00    +0.000 C 
ATOM     13  O   VAL F   2       5.113  36.481  15.038  0.00  0.00    +0.000 OA
ATOM     14  CB  VAL F   2       7.004  39.162  14.810  0.00  0.00    +0.000 C 
ATOM     15  CG2 VAL F   2       6.091  39.296  16.009  0.00  0.00    +0.000 C 
ATOM     16  CG1 VAL F   2       8.385  39.628  15.171  0.00  0.00    +0.000 C 
ATOM     17  H   GLU F   1       8.620  37.278   9.412  0.00  0.00    +0.000 HD
ATOM     18  H   GLU F   1       8.499  38.268  10.746  0.00  0.00    +0.000 HD
ATOM     19  H   GLU F   1       7.200  37.336  10.280  0.00  0.00    +0.000 HD
ATOM     20  H   VAL F   2       8.092  38.404  12.592  0.00  0.00    +0.000 HD
TER 
REMARK  Name = /data/user_data/xianyang/t3-aimnet-affinity-balanced/L2/O75460/pocket.pdb
REMARK                            x       y       z     vdW  Elec       q    Type
REMARK                         _______ _______ _______ _____ _____    ______ ____
ATOM      1  N   LEU G   1       5.986  33.421  14.571  0.00  0.00    +0.000 N 
ATOM      2  CA  LEU G   1       5.998  33.135  16.006  0.00  0.00    +0.000 C 
ATOM      3  C   LEU G   1       4.584  33.180  16.586  0.00  0.00    +0.000 C 
ATOM      4  O   LEU G   1       4.219  32.325  17.402  0.00  0.00    +0.000 OA
ATOM      5  CB  LEU G   1       6.943  34.094  16.752  0.00  0.00    +0.000 C 
ATOM      6  CG  LEU G   1       7.074  33.880  18.275  0.00  0.00    +0.000 C 
ATOM      7  CD1 LEU G   1       7.472  32.435  18.598  0.00  0.00    +0.000 C 
ATOM      8  CD2 LEU G   1       8.047  34.859  18.928  0.00  0.00    +0.000 C 
ATOM      9  H   LEU G   1       5.354  32.773  14.101  0.00  0.00    +0.000 HD
ATOM     10  H   LEU G   1       6.928  33.311  14.194  0.00  0.00    +0.000 HD
ATOM     11  H   LEU G   1       5.668  34.378  14.418  0.00  0.00    +0.000 HD
TER 
REMARK  Name = /data/user_data/xianyang/t3-aimnet-affinity-balanced/L2/O75460/pocket.pdb
REMARK                            x       y       z     vdW  Elec       q    Type
REMARK                         _______ _______ _______ _____ _____    ______ ____
ATOM      1  N   ILE H   1       8.433  28.804  22.186  0.00  0.00    +0.000 N 
ATOM      2  CA  ILE H   1       8.475  29.890  23.164  0.00  0.00    +0.000 C 
ATOM      3  C   ILE H   1       7.211  30.739  23.072  0.00  0.00    +0.000 C 
ATOM      4  O   ILE H   1       6.813  31.200  21.995  0.00  0.00    +0.000 OA
ATOM      5  CB  ILE H   1       9.743  30.736  22.955  0.00  0.00    +0.000 C 
ATOM      6  CG1 ILE H   1       9.945  31.687  24.126  0.00  0.00    +0.000 C 
ATOM      7  CG2 ILE H   1       9.687  31.526  21.655  0.00  0.00    +0.000 C 
ATOM      8  CD1 ILE H   1      10.271  30.985  25.416  0.00  0.00    +0.000 C 
ATOM      9  H   ILE H   1       9.284  28.247  22.260  0.00  0.00    +0.000 HD
ATOM     10  H   ILE H   1       8.364  29.195  21.246  0.00  0.00    +0.000 HD
ATOM     11  H   ILE H   1       7.622  28.213  22.369  0.00  0.00    +0.000 HD
TER 
REMARK  Name = /data/user_data/xianyang/t3-aimnet-affinity-balanced/L2/O75460/pocket.pdb
REMARK                            x       y       z     vdW  Elec       q    Type
REMARK                         _______ _______ _______ _____ _____    ______ ____
ATOM      1  N   TYR I   1       4.976  33.871  23.097  0.00  0.00    +0.000 N 
ATOM      2  CA  TYR I   1       5.215  35.258  22.724  0.00  0.00    +0.000 C 
ATOM      3  C   TYR I   1       4.065  36.131  23.243  0.00  0.00    +0.000 C 
ATOM      4  O   TYR I   1       2.887  35.818  23.029  0.00  0.00    +0.000 OA
ATOM      5  CB  TYR I   1       5.369  35.375  21.198  0.00  0.00    +0.000 C 
ATOM      6  CG  TYR I   1       5.026  36.746  20.671  0.00  0.00    +0.000 A 
ATOM      7  CD2 TYR I   1       5.908  37.809  20.822  0.00  0.00    +0.000 A 
ATOM      8  CD1 TYR I   1       3.807  36.987  20.050  0.00  0.00    +0.000 A 
ATOM      9  CE2 TYR I   1       5.588  39.068  20.356  0.00  0.00    +0.000 A 
ATOM     10  CE1 TYR I   1       3.474  38.246  19.577  0.00  0.00    +0.000 A 
ATOM     11  CZ  TYR I   1       4.371  39.284  19.731  0.00  0.00    +0.000 A 
ATOM     12  OH  TYR I   1       4.052  40.547  19.277  0.00  0.00    +0.000 OA
ATOM     13  H   TYR I   1       5.740  33.290  22.752  0.00  0.00    +0.000 HD
ATOM     14  H   TYR I   1       4.097  33.555  22.687  0.00  0.00    +0.000 HD
ATOM     15  H   TYR I   1       4.924  33.796  24.113  0.00  0.00    +0.000 HD
ATOM     16  H   TYR I   1       3.230  40.699  18.853  0.00  0.00    +0.000 HD
TER 
REMARK  Name = /data/user_data/xianyang/t3-aimnet-affinity-balanced/L2/O75460/pocket.pdb
REMARK                            x       y       z     vdW  Elec       q    Type
REMARK                         _______ _______ _______ _____ _____    ______ ____
ATOM      1  N   ILE J   1      10.164  43.173  21.616  0.00  0.00    +0.000 N 
ATOM      2  CA  ILE J   1       9.434  41.907  21.582  0.00  0.00    +0.000 C 
ATOM      3  C   ILE J   1       9.528  41.243  22.943  0.00  0.00    +0.000 C 
ATOM      4  O   ILE J   1      10.621  40.876  23.378  0.00  0.00    +0.000 OA
ATOM      5  CB  ILE J   1       9.990  40.973  20.507  0.00  0.00    +0.000 C 
ATOM      6  CG1 ILE J   1       9.678  41.531  19.126  0.00  0.00    +0.000 C 
ATOM      7  CG2 ILE J   1       9.416  39.590  20.707  0.00  0.00    +0.000 C 
ATOM      8  CD1 ILE J   1      10.709  41.188  18.096  0.00  0.00    +0.000 C 
ATOM      9  N   ALA J   2       8.391  41.047  23.600  0.00  0.00    +0.000 N 
ATOM     10  CA  ALA J   2       8.353  40.403  24.907  0.00  0.00    +0.000 C 
ATOM     11  C   ALA J   2       7.951  38.935  24.784  0.00  0.00    +0.000 C 
ATOM     12  O   ALA J   2       6.908  38.621  24.201  0.00  0.00    +0.000 OA
ATOM     13  CB  ALA J   2       7.380  41.130  25.827  0.00  0.00    +0.000 C 
ATOM     14  N   ILE J   3       8.772  38.041  25.344  0.00  0.00    +0.000 N 
ATOM     15  CA  ILE J   3       8.525  36.597  25.344  0.00  0.00    +0.000 C 
ATOM     16  C   ILE J   3       8.682  36.071  26.769  0.00  0.00    +0.000 C 
ATOM     17  O   ILE J   3       9.085  36.787  27.680  0.00  0.00    +0.000 OA
ATOM     18  CB  ILE J   3       9.453  35.829  24.372  0.00  0.00    +0.000 C 
ATOM     19  CG1 ILE J   3      10.916  35.941  24.801  0.00  0.00    +0.000 C 
ATOM     20  CG2 ILE J   3       9.295  36.293  22.929  0.00  0.00    +0.000 C 
ATOM     21  CD1 ILE J   3      11.829  34.901  24.127  0.00  0.00    +0.000 C 
ATOM     22  N   GLU J   4       8.371  34.797  26.947  0.00  0.00    +0.000 N 
ATOM     23  CA  GLU J   4       8.445  34.169  28.264  0.00  0.00    +0.000 C 
ATOM     24  C   GLU J   4       9.866  34.187  28.827  0.00  0.00    +0.000 C 
ATOM     25  O   GLU J   4      10.812  33.744  28.171  0.00  0.00    +0.000 OA
ATOM     26  CB  GLU J   4       7.947  32.734  28.153  0.00  0.00    +0.000 C 
ATOM     27  CG  GLU J   4       8.208  31.878  29.374  0.00  0.00    +0.000 C 
ATOM     28  CD  GLU J   4       7.522  30.518  29.282  0.00  0.00    +0.000 C 
ATOM     29  OE1 GLU J   4       6.530  30.392  28.529  0.00  0.00    +0.000 OA
ATOM     30  OE2 GLU J   4       7.989  29.570  29.950  0.00  0.00    +0.000 OA
ATOM     31  N   LEU J   5      10.025  34.689  30.050  0.00  0.00    +0.000 N 
ATOM     32  CA  LEU J   5      11.343  34.658  30.673  0.00  0.00    +0.000 C 
ATOM     33  C   LEU J   5      11.710  33.230  31.081  0.00  0.00    +0.000 C 
ATOM     34  O   LEU J   5      10.923  32.540  31.731  0.00  0.00    +0.000 OA
ATOM     35  CB  LEU J   5      11.386  35.584  31.883  0.00  0.00    +0.000 C 
ATOM     36  CG  LEU J   5      12.732  35.680  32.614  0.00  0.00    +0.000 C 
ATOM     37  CD1 LEU J   5      13.862  35.990  31.650  0.00  0.00    +0.000 C 
ATOM     38  CD2 LEU J   5      12.680  36.734  33.720  0.00  0.00    +0.000 C 
ATOM     39  N   CYS J   6      12.920  32.804  30.723  0.00  0.00    +0.000 N 
ATOM     40  CA  CYS J   6      13.374  31.425  30.873  0.00  0.00    +0.000 C 
ATOM     41  C   CYS J   6      14.601  31.321  31.772  0.00  0.00    +0.000 C 
ATOM     42  O   CYS J   6      15.290  32.304  32.054  0.00  0.00    +0.000 OA
ATOM     43  CB  CYS J   6      13.698  30.801  29.508  0.00  0.00    +0.000 C 
ATOM     44  SG  CYS J   6      12.232  30.595  28.471  0.00  0.00    +0.000 S 
ATOM     45  N   ALA J   7      14.875  30.085  32.197  0.00  0.00    +0.000 N 
ATOM     46  CA  ALA J   7      15.967  29.810  33.125  0.00  0.00    +0.000 C 
ATOM     47  C   ALA J   7      17.322  29.808  32.418  0.00  0.00    +0.000 C 
ATOM     48  O   ALA J   7      18.283  30.424  32.893  0.00  0.00    +0.000 OA
ATOM     49  CB  ALA J   7      15.728  28.468  33.816  0.00  0.00    +0.000 C 
ATOM     50  N   ALA J   8      17.421  29.114  31.290  0.00  0.00    +0.000 N 
ATOM     51  CA  ALA J   8      18.688  29.020  30.583  0.00  0.00    +0.000 C 
ATOM     52  C   ALA J   8      18.429  28.712  29.121  0.00  0.00    +0.000 C 
ATOM     53  O   ALA J   8      17.332  28.292  28.740  0.00  0.00    +0.000 OA
ATOM     54  CB  ALA J   8      19.581  27.951  31.194  0.00  0.00    +0.000 C 
ATOM     55  N   THR J   9      19.443  28.962  28.296  0.00  0.00    +0.000 N 
ATOM     56  CA  THR J   9      19.487  28.345  26.985  0.00  0.00    +0.000 C 
ATOM     57  C   THR J   9      19.911  26.886  27.143  0.00  0.00    +0.000 C 
ATOM     58  O   THR J   9      20.424  26.477  28.179  0.00  0.00    +0.000 OA
ATOM     59  CB  THR J   9      20.471  29.071  26.072  0.00  0.00    +0.000 C 
ATOM     60  OG1 THR J   9      21.809  28.845  26.553  0.00  0.00    +0.000 OA
ATOM     61  CG2 THR J   9      20.181  30.583  26.041  0.00  0.00    +0.000 C 
ATOM     62  H   ILE J   1      10.104  43.624  20.703  0.00  0.00    +0.000 HD
ATOM     63  H   ILE J   1      11.142  42.995  21.844  0.00  0.00    +0.000 HD
ATOM     64  H   ILE J   1       9.755  43.783  22.324  0.00  0.00    +0.000 HD
ATOM     65  H   ALA J   2       7.547  41.346  23.191  0.00  0.00    +0.000 HD
ATOM     66  H   ILE J   3       9.589  38.372  25.782  0.00  0.00    +0.000 HD
ATOM     67  H   GLU J   4       8.083  34.260  26.174  0.00  0.00    +0.000 HD
ATOM     68  H   LEU J   5       9.259  35.078  30.530  0.00  0.00    +0.000 HD
ATOM     69  H   CYS J   6      13.545  33.458  30.334  0.00  0.00    +0.000 HD
ATOM     70  H   CYS J   6      11.679  31.812  28.221  0.00  0.00    +0.000 HD
ATOM     71  H   ALA J   7      14.323  29.336  31.874  0.00  0.00    +0.000 HD
ATOM     72  H   ALA J   8      16.627  28.658  30.928  0.00  0.00    +0.000 HD
ATOM     73  H   THR J   9      20.166  29.568  28.577  0.00  0.00    +0.000 HD
ATOM     74  H   THR J   9      21.892  29.194  27.454  0.00  0.00    +0.000 HD
TER 
REMARK  Name = /data/user_data/xianyang/t3-aimnet-affinity-balanced/L2/O75460/pocket.pdb
REMARK                            x       y       z     vdW  Elec       q    Type
REMARK                         _______ _______ _______ _____ _____    ______ ____
ATOM      1  N   GLU K   1      23.767  26.894  27.895  0.00  0.00    +0.000 N 
ATOM      2  CA  GLU K   1      24.078  27.079  29.307  0.00  0.00    +0.000 C 
ATOM      3  C   GLU K   1      23.786  25.820  30.098  0.00  0.00    +0.000 C 
ATOM      4  O   GLU K   1      24.572  25.420  30.965  0.00  0.00    +0.000 OA
ATOM      5  CB  GLU K   1      23.274  28.253  29.879  0.00  0.00    +0.000 C 
ATOM      6  CG  GLU K   1      23.595  29.617  29.258  0.00  0.00    +0.000 C 
ATOM      7  CD  GLU K   1      22.634  30.726  29.701  0.00  0.00    +0.000 C 
ATOM      8  OE2 GLU K   1      23.106  31.823  30.077  0.00  0.00    +0.000 OA
ATOM      9  OE1 GLU K   1      21.407  30.507  29.656  0.00  0.00    +0.000 OA
ATOM     10  H   GLU K   1      23.972  27.754  27.386  0.00  0.00    +0.000 HD
ATOM     11  H   GLU K   1      22.778  26.665  27.792  0.00  0.00    +0.000 HD
ATOM     12  H   GLU K   1      24.333  26.133  27.519  0.00  0.00    +0.000 HD
TER 
REMARK  Name = /data/user_data/xianyang/t3-aimnet-affinity-balanced/L2/O75460/pocket.pdb
REMARK                            x       y       z     vdW  Elec       q    Type
REMARK                         _______ _______ _______ _____ _____    ______ ____
ATOM      1  N   HIS L   1      21.992  27.349  21.577  0.00  0.00    +0.000 N 
ATOM      2  CA  HIS L   1      21.735  28.713  22.029  0.00  0.00    +0.000 C 
ATOM      3  C   HIS L   1      20.280  29.126  21.789  0.00  0.00    +0.000 C 
ATOM      4  O   HIS L   1      19.736  29.932  22.548  0.00  0.00    +0.000 OA
ATOM      5  CB  HIS L   1      22.699  29.679  21.339  0.00  0.00    +0.000 C 
ATOM      6  CG  HIS L   1      22.448  31.121  21.654  0.00  0.00    +0.000 A 
ATOM      7  ND1 HIS L   1      22.872  31.713  22.824  0.00  0.00    +0.000 N 
ATOM      8  CD2 HIS L   1      21.828  32.095  20.944  0.00  0.00    +0.000 A 
ATOM      9  CE1 HIS L   1      22.524  32.990  22.823  0.00  0.00    +0.000 A 
ATOM     10  NE2 HIS L   1      21.887  33.246  21.694  0.00  0.00    +0.000 NA
ATOM     11  N   ASN L   2      19.620  28.553  20.785  0.00  0.00    +0.000 N 
ATOM     12  CA  ASN L   2      18.264  28.941  20.393  0.00  0.00    +0.000 C 
ATOM     13  C   ASN L   2      17.178  28.155  21.105  0.00  0.00    +0.000 C 
ATOM     14  O   ASN L   2      15.997  28.404  20.855  0.00  0.00    +0.000 OA
ATOM     15  CB  ASN L   2      18.048  28.733  18.882  0.00  0.00    +0.000 C 
ATOM     16  CG  ASN L   2      18.658  29.836  18.042  0.00  0.00    +0.000 C 
ATOM     17  OD1 ASN L   2      19.150  30.848  18.562  0.00  0.00    +0.000 OA
ATOM     18  ND2 ASN L   2      18.649  29.639  16.730  0.00  0.00    +0.000 N 
ATOM     19  H   HIS L   1      22.968  27.111  21.753  0.00  0.00    +0.000 HD
ATOM     20  H   HIS L   1      21.800  27.280  20.578  0.00  0.00    +0.000 HD
ATOM     21  H   HIS L   1      21.388  26.703  22.085  0.00  0.00    +0.000 HD
ATOM     22  H   HIS L   1      23.358  31.257  23.548  0.00  0.00    +0.000 HD
ATOM     23  H   ASN L   2      20.065  27.834  20.282  0.00  0.00    +0.000 HD
ATOM     24  H   ASN L   2      19.030  30.318  16.128  0.00  0.00    +0.000 HD
ATOM     25  H   ASN L   2      18.261  28.814  16.359  0.00  0.00    +0.000 HD
TER 
REMARK  Name = /data/user_data/xianyang/t3-aimnet-affinity-balanced/L2/O75460/pocket.pdb
REMARK                            x       y       z     vdW  Elec       q    Type
REMARK                         _______ _______ _______ _____ _____    ______ ____
ATOM      1  N   LEU M   1      15.348  27.328  24.465  0.00  0.00    +0.000 N 
ATOM      2  CA  LEU M   1      15.198  27.868  25.811  0.00  0.00    +0.000 C 
ATOM      3  C   LEU M   1      14.660  26.812  26.776  0.00  0.00    +0.000 C 
ATOM      4  O   LEU M   1      13.879  25.938  26.404  0.00  0.00    +0.000 OA
ATOM      5  CB  LEU M   1      14.263  29.064  25.801  0.00  0.00    +0.000 C 
ATOM      6  CG  LEU M   1      14.736  30.155  24.855  0.00  0.00    +0.000 C 
ATOM      7  CD1 LEU M   1      13.697  31.257  24.796  0.00  0.00    +0.000 C 
ATOM      8  CD2 LEU M   1      16.066  30.733  25.323  0.00  0.00    +0.000 C 
ATOM      9  H   LEU M   1      15.708  28.054  23.846  0.00  0.00    +0.000 HD
ATOM     10  H   LEU M   1      14.441  27.008  24.124  0.00  0.00    +0.000 HD
ATOM     11  H   LEU M   1      16.000  26.544  24.484  0.00  0.00    +0.000 HD
TER 
REMARK  Name = /data/user_data/xianyang/t3-aimnet-affinity-balanced/L2/O75460/pocket.pdb
REMARK                            x       y       z     vdW  Elec       q    Type
REMARK                         _______ _______ _______ _____ _____    ______ ____
ATOM      1  N   ILE N   1      11.477  25.918  21.414  0.00  0.00    +0.000 N 
ATOM      2  CA  ILE N   1      12.116  26.542  20.263  0.00  0.00    +0.000 C 
ATOM      3  C   ILE N   1      11.928  28.051  20.349  0.00  0.00    +0.000 C 
ATOM      4  O   ILE N   1      10.829  28.541  20.645  0.00  0.00    +0.000 OA
ATOM      5  CB  ILE N   1      11.491  26.026  18.956  0.00  0.00    +0.000 C 
ATOM      6  CG1 ILE N   1      11.418  24.498  18.934  0.00  0.00    +0.000 C 
ATOM      7  CG2 ILE N   1      12.186  26.627  17.753  0.00  0.00    +0.000 C 
ATOM      8  CD1 ILE N   1      12.611  23.869  18.516  0.00  0.00    +0.000 C 
ATOM      9  N   SER N   2      12.980  28.804  20.038  0.00  0.00    +0.000 N 
ATOM     10  CA  SER N   2      12.838  30.249  19.889  0.00  0.00    +0.000 C 
ATOM     11  C   SER N   2      13.634  30.690  18.667  0.00  0.00    +0.000 C 
ATOM     12  O   SER N   2      14.225  29.870  17.960  0.00  0.00    +0.000 OA
ATOM     13  CB  SER N   2      13.314  30.977  21.148  0.00  0.00    +0.000 C 
ATOM     14  OG  SER N   2      14.729  30.916  21.184  0.00  0.00    +0.000 OA
ATOM     15  N   ASP N   3      13.674  32.006  18.452  0.00  0.00    +0.000 N 
ATOM     16  CA  ASP N   3      14.495  32.648  17.428  0.00  0.00    +0.000 C 
ATOM     17  C   ASP N   3      13.952  32.362  16.042  0.00  0.00    +0.000 C 
ATOM     18  O   ASP N   3      14.436  31.467  15.336  0.00  0.00    +0.000 OA
ATOM     19  CB  ASP N   3      15.968  32.229  17.507  0.00  0.00    +0.000 C 
ATOM     20  CG  ASP N   3      16.884  33.254  16.851  0.00  0.00    +0.000 C 
ATOM     21  OD1 ASP N   3      16.347  34.172  16.184  0.00  0.00    +0.000 OA
ATOM     22  OD2 ASP N   3      18.124  33.146  16.998  0.00  0.00    +0.000 OA
ATOM     23  N   PHE N   4      12.958  33.142  15.641  0.00  0.00    +0.000 N 
ATOM     24  CA  PHE N   4      12.254  32.918  14.393  0.00  0.00    +0.000 C 
ATOM     25  C   PHE N   4      12.783  33.787  13.265  0.00  0.00    +0.000 C 
ATOM     26  O   PHE N   4      12.114  33.921  12.234  0.00  0.00    +0.000 OA
ATOM     27  CB  PHE N   4      10.750  33.147  14.604  0.00  0.00    +0.000 C 
ATOM     28  CG  PHE N   4      10.059  31.961  15.164  0.00  0.00    +0.000 A 
ATOM     29  CD2 PHE N   4      10.514  31.370  16.342  0.00  0.00    +0.000 A 
ATOM     30  CD1 PHE N   4       8.987  31.391  14.495  0.00  0.00    +0.000 A 
ATOM     31  CE2 PHE N   4       9.908  30.229  16.851  0.00  0.00    +0.000 A 
ATOM     32  CE1 PHE N   4       8.369  30.245  14.999  0.00  0.00    +0.000 A 
ATOM     33  CZ  PHE N   4       8.844  29.654  16.177  0.00  0.00    +0.000 A 
ATOM     34  N   GLY N   5      13.971  34.374  13.436  0.00  0.00    +0.000 N 
ATOM     35  CA  GLY N   5      14.465  35.332  12.466  0.00  0.00    +0.000 C 
ATOM     36  C   GLY N   5      14.779  34.739  11.106  0.00  0.00    +0.000 C 
ATOM     37  O   GLY N   5      14.809  35.460  10.111  0.00  0.00    +0.000 OA
ATOM     38  H   ILE N   1      11.599  24.907  21.364  0.00  0.00    +0.000 HD
ATOM     39  H   ILE N   1      10.482  26.141  21.413  0.00  0.00    +0.000 HD
ATOM     40  H   ILE N   1      11.903  26.269  22.271  0.00  0.00    +0.000 HD
ATOM     41  H   SER N   2      13.861  28.383  19.907  0.00  0.00    +0.000 HD
ATOM     42  H   SER N   2      15.012  29.988  21.198  0.00  0.00    +0.000 HD
ATOM     43  H   ASP N   3      13.114  32.582  19.020  0.00  0.00    +0.000 HD
ATOM     44  H   PHE N   4      12.689  33.899  16.210  0.00  0.00    +0.000 HD
ATOM     45  H   GLY N   5      14.515  34.154  14.227  0.00  0.00    +0.000 HD
TER 
