REMARK  Name = /home/xianyang/aimnet2_score_pipelines/work/L1234-fixed-receptor-eint-20260921/L3/Q00959/prepared.pdb
REMARK                            x       y       z     vdW  Elec       q    Type
REMARK                         _______ _______ _______ _____ _____    ______ ____
ATOM      1  CH3 ACE A   1       7.465  18.543  36.885  0.00  0.00    +0.000 C 
ATOM      2  C   ACE A   1       8.478  17.427  37.052  0.00  0.00    +0.000 C 
ATOM      3  O   ACE A   1       9.153  17.345  38.080  0.00  0.00    +0.000 OA
ATOM      4  N   GLU A   2       8.601  16.570  36.047  0.00  0.00    +0.000 N 
ATOM      5  H   GLU A   2       8.092  16.704  35.190  0.00  0.00    +0.000 HD
ATOM      6  CA  GLU A   2       9.558  15.482  36.143  0.00  0.00    +0.000 C 
ATOM      7  C   GLU A   2      11.005  15.945  36.000  0.00  0.00    +0.000 C 
ATOM      8  O   GLU A   2      11.344  16.704  35.089  0.00  0.00    +0.000 OA
ATOM      9  CB  GLU A   2       9.258  14.412  35.083  0.00  0.00    +0.000 C 
ATOM     10  CG  GLU A   2      10.249  13.247  35.075  0.00  0.00    +0.000 C 
ATOM     11  CD  GLU A   2       9.773  12.075  34.235  0.00  0.00    +0.000 C 
ATOM     12  OE1 GLU A   2       9.201  12.315  33.151  0.00  0.00    +0.000 OA
ATOM     13  OE2 GLU A   2       9.985  10.913  34.655  0.00  0.00    +0.000 OA
ATOM     14  N   GLU A   3      11.833  15.485  36.934  0.00  0.00    +0.000 N 
ATOM     15  H   GLU A   3      11.437  14.979  37.709  0.00  0.00    +0.000 HD
ATOM     16  CA  GLU A   3      13.276  15.732  36.970  0.00  0.00    +0.000 C 
ATOM     17  C   GLU A   3      13.869  14.806  38.032  0.00  0.00    +0.000 C 
ATOM     18  O   GLU A   3      13.830  15.108  39.223  0.00  0.00    +0.000 OA
ATOM     19  CB  GLU A   3      13.612  17.193  37.308  0.00  0.00    +0.000 C 
ATOM     20  CG  GLU A   3      15.126  17.413  37.487  0.00  0.00    +0.000 C 
ATOM     21  CD  GLU A   3      15.617  18.772  37.013  0.00  0.00    +0.000 C 
ATOM     22  OE1 GLU A   3      15.166  19.801  37.556  0.00  0.00    +0.000 OA
ATOM     23  OE2 GLU A   3      16.471  18.806  36.095  0.00  0.00    +0.000 OA
ATOM     24  N   ALA A   4      14.402  13.668  37.596  0.00  0.00    +0.000 N 
ATOM     25  H   ALA A   4      14.425  13.480  36.608  0.00  0.00    +0.000 HD
ATOM     26  CA  ALA A   4      14.988  12.701  38.517  0.00  0.00    +0.000 C 
ATOM     27  C   ALA A   4      16.167  13.331  39.245  0.00  0.00    +0.000 C 
ATOM     28  O   ALA A   4      16.901  14.127  38.662  0.00  0.00    +0.000 OA
ATOM     29  CB  ALA A   4      15.446  11.466  37.749  0.00  0.00    +0.000 C 
ATOM     30  N   NME A   5      16.377  12.971  40.522  0.00  0.00    +0.000 N 
ATOM     31  H   NME A   5      17.150  13.452  40.957  0.00  0.00    +0.000 HD
ATOM     32  C   NME A   5      15.616  12.026  41.346  0.00  0.00    +0.000 C 
TER 
REMARK  Name = /home/xianyang/aimnet2_score_pipelines/work/L1234-fixed-receptor-eint-20260921/L3/Q00959/prepared.pdb
REMARK                            x       y       z     vdW  Elec       q    Type
REMARK                         _______ _______ _______ _____ _____    ______ ____
ATOM      1  CH3 ACE B   1       6.998  25.120  29.919  0.00  0.00    +0.000 C 
ATOM      2  C   ACE B   1       7.514  24.080  30.892  0.00  0.00    +0.000 C 
ATOM      3  O   ACE B   1       7.009  22.956  30.945  0.00  0.00    +0.000 OA
ATOM      4  N   LYS B   2       8.518  24.454  31.676  0.00  0.00    +0.000 N 
ATOM      5  H   LYS B   2       8.870  25.393  31.590  0.00  0.00    +0.000 HD
ATOM      6  CA  LYS B   2       9.095  23.533  32.639  0.00  0.00    +0.000 C 
ATOM      7  C   LYS B   2       9.011  24.108  34.044  0.00  0.00    +0.000 C 
ATOM      8  O   LYS B   2       7.924  24.226  34.597  0.00  0.00    +0.000 OA
ATOM      9  CB  LYS B   2      10.547  23.228  32.255  0.00  0.00    +0.000 C 
ATOM     10  CG  LYS B   2      10.680  22.550  30.898  0.00  0.00    +0.000 C 
ATOM     11  CD  LYS B   2      12.136  22.289  30.537  0.00  0.00    +0.000 C 
ATOM     12  CE  LYS B   2      12.261  21.670  29.152  0.00  0.00    +0.000 C 
ATOM     13  NZ  LYS B   2      13.680  21.467  28.744  0.00  0.00    +0.000 N 
ATOM     14  HZ1 LYS B   2      13.734  21.015  27.841  0.00  0.00    +0.000 HD
ATOM     15  HZ2 LYS B   2      14.174  22.350  28.706  0.00  0.00    +0.000 HD
ATOM     16  HZ3 LYS B   2      14.151  20.879  29.422  0.00  0.00    +0.000 HD
ATOM     17  N   HIS B   3      10.149  24.488  34.613  0.00  0.00    +0.000 N 
ATOM     18  H   HIS B   3      11.019  24.265  34.162  0.00  0.00    +0.000 HD
ATOM     19  CA  HIS B   3      10.168  25.038  35.963  0.00  0.00    +0.000 C 
ATOM     20  C   HIS B   3       9.478  26.394  36.032  0.00  0.00    +0.000 C 
ATOM     21  O   HIS B   3       8.684  26.648  36.938  0.00  0.00    +0.000 OA
ATOM     22  CB  HIS B   3      11.615  25.149  36.446  0.00  0.00    +0.000 C 
ATOM     23  CG  HIS B   3      12.382  23.871  36.316  0.00  0.00    +0.000 A 
ATOM     24  ND1 HIS B   3      12.590  23.013  37.375  0.00  0.00    +0.000 N 
ATOM     25  HD1 HIS B   3      12.388  23.155  38.354  0.00  0.00    +0.000 HD
ATOM     26  CD2 HIS B   3      12.948  23.281  35.237  0.00  0.00    +0.000 A 
ATOM     27  CE1 HIS B   3      13.253  21.951  36.954  0.00  0.00    +0.000 A 
ATOM     28  NE2 HIS B   3      13.482  22.088  35.661  0.00  0.00    +0.000 NA
ATOM     29  N   GLY B   4       9.777  27.266  35.075  0.00  0.00    +0.000 N 
ATOM     30  H   GLY B   4      10.448  27.035  34.360  0.00  0.00    +0.000 HD
ATOM     31  CA  GLY B   4       9.149  28.573  35.077  0.00  0.00    +0.000 C 
ATOM     32  C   GLY B   4       9.946  29.665  34.398  0.00  0.00    +0.000 C 
ATOM     33  O   GLY B   4      11.111  29.891  34.717  0.00  0.00    +0.000 OA
ATOM     34  N   LYS B   5       9.310  30.345  33.449  0.00  0.00    +0.000 N 
ATOM     35  H   LYS B   5       8.328  30.166  33.268  0.00  0.00    +0.000 HD
ATOM     36  CA  LYS B   5       9.950  31.435  32.730  0.00  0.00    +0.000 C 
ATOM     37  C   LYS B   5       8.885  32.413  32.268  0.00  0.00    +0.000 C 
ATOM     38  O   LYS B   5       7.773  32.013  31.935  0.00  0.00    +0.000 OA
ATOM     39  CB  LYS B   5      10.708  30.915  31.508  0.00  0.00    +0.000 C 
ATOM     40  CG  LYS B   5      11.319  32.026  30.658  0.00  0.00    +0.000 C 
ATOM     41  CD  LYS B   5      12.066  31.480  29.452  0.00  0.00    +0.000 C 
ATOM     42  CE  LYS B   5      12.668  32.615  28.630  0.00  0.00    +0.000 C 
ATOM     43  NZ  LYS B   5      13.434  32.123  27.457  0.00  0.00    +0.000 N 
ATOM     44  HZ1 LYS B   5      14.237  31.591  27.793  0.00  0.00    +0.000 HD
ATOM     45  HZ2 LYS B   5      13.802  32.866  26.881  0.00  0.00    +0.000 HD
ATOM     46  HZ3 LYS B   5      12.925  31.448  26.900  0.00  0.00    +0.000 HD
ATOM     47  N   NME B   6       9.233  33.693  32.263  0.00  0.00    +0.000 N 
ATOM     48  H   NME B   6      10.136  33.968  32.623  0.00  0.00    +0.000 HD
ATOM     49  C   NME B   6       8.310  34.720  31.810  0.00  0.00    +0.000 C 
TER 
REMARK  Name = /home/xianyang/aimnet2_score_pipelines/work/L1234-fixed-receptor-eint-20260921/L3/Q00959/prepared.pdb
REMARK                            x       y       z     vdW  Elec       q    Type
REMARK                         _______ _______ _______ _____ _____    ______ ____
ATOM      1  CH3 ACE C   1       4.780  29.452  32.089  0.00  0.00    +0.000 C 
ATOM      2  C   ACE C   1       5.399  28.496  33.115  0.00  0.00    +0.000 C 
ATOM      3  O   ACE C   1       5.923  28.947  34.136  0.00  0.00    +0.000 OA
ATOM      4  N   GLY C   2       5.314  27.193  32.868  0.00  0.00    +0.000 N 
ATOM      5  H   GLY C   2       4.780  26.871  32.077  0.00  0.00    +0.000 HD
ATOM      6  CA  GLY C   2       5.883  26.226  33.794  0.00  0.00    +0.000 C 
ATOM      7  C   GLY C   2       5.184  26.165  35.140  0.00  0.00    +0.000 C 
ATOM      8  O   GLY C   2       4.046  26.626  35.279  0.00  0.00    +0.000 OA
ATOM      9  N   MET C   3       5.857  25.596  36.137  0.00  0.00    +0.000 N 
ATOM     10  H   MET C   3       6.757  25.176  35.944  0.00  0.00    +0.000 HD
ATOM     11  CA  MET C   3       5.272  25.482  37.471  0.00  0.00    +0.000 C 
ATOM     12  C   MET C   3       4.947  26.849  38.062  0.00  0.00    +0.000 C 
ATOM     13  O   MET C   3       3.894  27.028  38.673  0.00  0.00    +0.000 OA
ATOM     14  CB  MET C   3       6.213  24.723  38.416  0.00  0.00    +0.000 C 
ATOM     15  CG  MET C   3       6.370  23.234  38.094  0.00  0.00    +0.000 C 
ATOM     16  SD  MET C   3       7.293  22.300  39.360  0.00  0.00    +0.000 S 
ATOM     17  CE  MET C   3       8.980  22.699  38.903  0.00  0.00    +0.000 C 
ATOM     18  N   ILE C   4       5.845  27.816  37.878  0.00  0.00    +0.000 N 
ATOM     19  H   ILE C   4       6.705  27.597  37.396  0.00  0.00    +0.000 HD
ATOM     20  CA  ILE C   4       5.618  29.157  38.410  0.00  0.00    +0.000 C 
ATOM     21  C   ILE C   4       4.325  29.740  37.840  0.00  0.00    +0.000 C 
ATOM     22  O   ILE C   4       3.530  30.337  38.570  0.00  0.00    +0.000 OA
ATOM     23  CB  ILE C   4       6.803  30.102  38.093  0.00  0.00    +0.000 C 
ATOM     24  CG1 ILE C   4       8.051  29.646  38.859  0.00  0.00    +0.000 C 
ATOM     25  CG2 ILE C   4       6.463  31.538  38.498  0.00  0.00    +0.000 C 
ATOM     26  CD1 ILE C   4       7.888  29.677  40.382  0.00  0.00    +0.000 C 
ATOM     27  N   NME C   5       4.110  29.546  36.542  0.00  0.00    +0.000 N 
ATOM     28  H   NME C   5       4.761  28.995  35.998  0.00  0.00    +0.000 HD
ATOM     29  C   NME C   5       2.903  30.050  35.903  0.00  0.00    +0.000 C 
TER 
REMARK  Name = /home/xianyang/aimnet2_score_pipelines/work/L1234-fixed-receptor-eint-20260921/L3/Q00959/prepared.pdb
REMARK                            x       y       z     vdW  Elec       q    Type
REMARK                         _______ _______ _______ _____ _____    ______ ____
ATOM      1  CH3 ACE D   1       6.526  20.944  44.345  0.00  0.00    +0.000 C 
ATOM      2  C   ACE D   1       7.432  20.286  43.314  0.00  0.00    +0.000 C 
ATOM      3  O   ACE D   1       6.960  19.735  42.325  0.00  0.00    +0.000 OA
ATOM      4  N   GLY D   2       8.736  20.358  43.547  0.00  0.00    +0.000 N 
ATOM      5  H   GLY D   2       9.091  20.863  44.346  0.00  0.00    +0.000 HD
ATOM      6  CA  GLY D   2       9.683  19.765  42.625  0.00  0.00    +0.000 C 
ATOM      7  C   GLY D   2      11.031  20.435  42.750  0.00  0.00    +0.000 C 
ATOM      8  O   GLY D   2      11.297  21.121  43.738  0.00  0.00    +0.000 OA
ATOM      9  N   SER D   3      11.881  20.239  41.748  0.00  0.00    +0.000 N 
ATOM     10  H   SER D   3      11.632  19.666  40.950  0.00  0.00    +0.000 HD
ATOM     11  CA  SER D   3      13.217  20.828  41.737  0.00  0.00    +0.000 C 
ATOM     12  C   SER D   3      13.106  22.285  41.302  0.00  0.00    +0.000 C 
ATOM     13  O   SER D   3      13.718  22.704  40.321  0.00  0.00    +0.000 OA
ATOM     14  CB  SER D   3      14.102  20.048  40.765  0.00  0.00    +0.000 C 
ATOM     15  OG  SER D   3      13.391  19.742  39.576  0.00  0.00    +0.000 OA
ATOM     16  HG  SER D   3      14.058  19.741  38.838  0.00  0.00    +0.000 HD
ATOM     17  N   LEU D   4      12.330  23.052  42.062  0.00  0.00    +0.000 N 
ATOM     18  H   LEU D   4      11.913  22.643  42.892  0.00  0.00    +0.000 HD
ATOM     19  CA  LEU D   4      12.071  24.455  41.756  0.00  0.00    +0.000 C 
ATOM     20  C   LEU D   4      13.006  25.402  42.496  0.00  0.00    +0.000 C 
ATOM     21  O   LEU D   4      12.948  25.525  43.718  0.00  0.00    +0.000 OA
ATOM     22  CB  LEU D   4      10.616  24.777  42.102  0.00  0.00    +0.000 C 
ATOM     23  CG  LEU D   4      10.037  26.130  41.690  0.00  0.00    +0.000 C 
ATOM     24  CD1 LEU D   4      10.151  26.322  40.179  0.00  0.00    +0.000 C 
ATOM     25  CD2 LEU D   4       8.575  26.184  42.120  0.00  0.00    +0.000 C 
ATOM     26  N   THR D   5      13.855  26.081  41.734  0.00  0.00    +0.000 N 
ATOM     27  H   THR D   5      13.996  25.752  40.791  0.00  0.00    +0.000 HD
ATOM     28  CA  THR D   5      14.831  27.010  42.283  0.00  0.00    +0.000 C 
ATOM     29  C   THR D   5      14.254  28.364  42.681  0.00  0.00    +0.000 C 
ATOM     30  O   THR D   5      13.497  28.984  41.934  0.00  0.00    +0.000 OA
ATOM     31  CB  THR D   5      15.968  27.240  41.273  0.00  0.00    +0.000 C 
ATOM     32  OG1 THR D   5      16.611  25.992  41.000  0.00  0.00    +0.000 OA
ATOM     33  HG1 THR D   5      17.250  25.760  41.684  0.00  0.00    +0.000 HD
ATOM     34  CG2 THR D   5      16.992  28.229  41.820  0.00  0.00    +0.000 C 
ATOM     35  N   ILE D   6      14.631  28.812  43.870  0.00  0.00    +0.000 N 
ATOM     36  H   ILE D   6      15.207  28.225  44.466  0.00  0.00    +0.000 HD
ATOM     37  CA  ILE D   6      14.200  30.099  44.390  0.00  0.00    +0.000 C 
ATOM     38  C   ILE D   6      15.101  31.194  43.806  0.00  0.00    +0.000 C 
ATOM     39  O   ILE D   6      16.325  31.097  43.890  0.00  0.00    +0.000 OA
ATOM     40  CB  ILE D   6      14.354  30.152  45.935  0.00  0.00    +0.000 C 
ATOM     41  CG1 ILE D   6      13.501  29.066  46.602  0.00  0.00    +0.000 C 
ATOM     42  CG2 ILE D   6      13.989  31.538  46.440  0.00  0.00    +0.000 C 
ATOM     43  CD1 ILE D   6      13.771  28.907  48.102  0.00  0.00    +0.000 C 
ATOM     44  N   ASN D   7      14.507  32.212  43.188  0.00  0.00    +0.000 N 
ATOM     45  H   ASN D   7      13.500  32.293  43.221  0.00  0.00    +0.000 HD
ATOM     46  CA  ASN D   7      15.290  33.336  42.683  0.00  0.00    +0.000 C 
ATOM     47  C   ASN D   7      14.484  34.622  42.845  0.00  0.00    +0.000 C 
ATOM     48  O   ASN D   7      13.280  34.578  43.117  0.00  0.00    +0.000 OA
ATOM     49  CB  ASN D   7      15.783  33.104  41.232  0.00  0.00    +0.000 C 
ATOM     50  CG  ASN D   7      14.673  33.107  40.191  0.00  0.00    +0.000 C 
ATOM     51  OD1 ASN D   7      14.752  32.381  39.194  0.00  0.00    +0.000 OA
ATOM     52  ND2 ASN D   7      13.662  33.935  40.390  0.00  0.00    +0.000 N 
ATOM     53 HD21 ASN D   7      12.999  33.934  39.629  0.00  0.00    +0.000 HD
ATOM     54 HD22 ASN D   7      13.460  34.310  41.301  0.00  0.00    +0.000 HD
ATOM     55  N   GLU D   8      15.146  35.766  42.715  0.00  0.00    +0.000 N 
ATOM     56  H   GLU D   8      16.153  35.760  42.646  0.00  0.00    +0.000 HD
ATOM     57  CA  GLU D   8      14.475  37.050  42.902  0.00  0.00    +0.000 C 
ATOM     58  C   GLU D   8      13.276  37.330  42.001  0.00  0.00    +0.000 C 
ATOM     59  O   GLU D   8      12.246  37.812  42.475  0.00  0.00    +0.000 OA
ATOM     60  CB  GLU D   8      15.488  38.187  42.780  0.00  0.00    +0.000 C 
ATOM     61  CG  GLU D   8      16.420  38.289  43.976  0.00  0.00    +0.000 C 
ATOM     62  CD  GLU D   8      17.320  39.504  43.908  0.00  0.00    +0.000 C 
ATOM     63  OE1 GLU D   8      16.792  40.630  43.773  0.00  0.00    +0.000 OA
ATOM     64  OE2 GLU D   8      18.554  39.334  43.992  0.00  0.00    +0.000 OA
ATOM     65  N   GLU D   9      13.406  37.040  40.712  0.00  0.00    +0.000 N 
ATOM     66  H   GLU D   9      14.286  36.694  40.369  0.00  0.00    +0.000 HD
ATOM     67  CA  GLU D   9      12.313  37.276  39.777  0.00  0.00    +0.000 C 
ATOM     68  C   GLU D   9      11.067  36.496  40.186  0.00  0.00    +0.000 C 
ATOM     69  O   GLU D   9       9.958  37.033  40.204  0.00  0.00    +0.000 OA
ATOM     70  CB  GLU D   9      12.732  36.873  38.360  0.00  0.00    +0.000 C 
ATOM     71  CG  GLU D   9      11.599  36.918  37.346  0.00  0.00    +0.000 C 
ATOM     72  CD  GLU D   9      12.023  36.438  35.968  0.00  0.00    +0.000 C 
ATOM     73  OE1 GLU D   9      12.598  35.331  35.867  0.00  0.00    +0.000 OA
ATOM     74  OE2 GLU D   9      11.774  37.164  34.982  0.00  0.00    +0.000 OA
ATOM     75  N   ARG D  10      11.251  35.225  40.522  0.00  0.00    +0.000 N 
ATOM     76  H   ARG D  10      12.186  34.916  40.646  0.00  0.00    +0.000 HD
ATOM     77  CA  ARG D  10      10.124  34.394  40.917  0.00  0.00    +0.000 C 
ATOM     78  C   ARG D  10       9.519  34.821  42.248  0.00  0.00    +0.000 C 
ATOM     79  O   ARG D  10       8.302  34.767  42.426  0.00  0.00    +0.000 OA
ATOM     80  CB  ARG D  10      10.560  32.933  40.980  0.00  0.00    +0.000 C 
ATOM     81  CG  ARG D  10      10.908  32.381  39.617  0.00  0.00    +0.000 C 
ATOM     82  CD  ARG D  10      11.577  31.024  39.709  0.00  0.00    +0.000 C 
ATOM     83  NE  ARG D  10      11.853  30.483  38.382  0.00  0.00    +0.000 N 
ATOM     84  HE  ARG D  10      11.616  31.044  37.578  0.00  0.00    +0.000 HD
ATOM     85  CZ  ARG D  10      12.465  29.325  38.163  0.00  0.00    +0.000 C 
ATOM     86  NH1 ARG D  10      12.869  28.582  39.187  0.00  0.00    +0.000 N 
ATOM     87 HH11 ARG D  10      12.802  28.947  40.135  0.00  0.00    +0.000 HD
ATOM     88 HH12 ARG D  10      13.364  27.729  39.031  0.00  0.00    +0.000 HD
ATOM     89  NH2 ARG D  10      12.666  28.902  36.922  0.00  0.00    +0.000 N 
ATOM     90 HH21 ARG D  10      12.300  29.444  36.138  0.00  0.00    +0.000 HD
ATOM     91 HH22 ARG D  10      13.148  28.045  36.751  0.00  0.00    +0.000 HD
ATOM     92  N   SER D  11      10.361  35.256  43.178  0.00  0.00    +0.000 N 
ATOM     93  H   SER D  11      11.357  35.248  43.012  0.00  0.00    +0.000 HD
ATOM     94  CA  SER D  11       9.873  35.674  44.488  0.00  0.00    +0.000 C 
ATOM     95  C   SER D  11       8.984  36.912  44.419  0.00  0.00    +0.000 C 
ATOM     96  O   SER D  11       8.237  37.197  45.357  0.00  0.00    +0.000 OA
ATOM     97  CB  SER D  11      11.047  35.922  45.435  0.00  0.00    +0.000 C 
ATOM     98  OG  SER D  11      11.708  34.703  45.732  0.00  0.00    +0.000 OA
ATOM     99  HG  SER D  11      12.416  34.889  46.356  0.00  0.00    +0.000 HD
ATOM    100  N   NME D  12       9.057  37.642  43.311  0.00  0.00    +0.000 N 
ATOM    101  H   NME D  12       9.688  37.376  42.566  0.00  0.00    +0.000 HD
ATOM    102  C   NME D  12       8.229  38.835  43.152  0.00  0.00    +0.000 C 
TER 
REMARK  Name = /home/xianyang/aimnet2_score_pipelines/work/L1234-fixed-receptor-eint-20260921/L3/Q00959/prepared.pdb
REMARK                            x       y       z     vdW  Elec       q    Type
REMARK                         _______ _______ _______ _____ _____    ______ ____
ATOM      1  CH3 ACE E   1      20.717  23.566  48.512  0.00  0.00    +0.000 C 
ATOM      2  C   ACE E   1      21.137  23.409  47.059  0.00  0.00    +0.000 C 
ATOM      3  O   ACE E   1      21.326  22.296  46.566  0.00  0.00    +0.000 OA
ATOM      4  N   THR E   2      21.252  24.527  46.357  0.00  0.00    +0.000 N 
ATOM      5  H   THR E   2      21.159  25.438  46.801  0.00  0.00    +0.000 HD
ATOM      6  CA  THR E   2      21.652  24.457  44.966  0.00  0.00    +0.000 C 
ATOM      7  C   THR E   2      22.305  25.751  44.512  0.00  0.00    +0.000 C 
ATOM      8  O   THR E   2      22.582  26.640  45.320  0.00  0.00    +0.000 OA
ATOM      9  CB  THR E   2      20.445  24.106  44.064  0.00  0.00    +0.000 C 
ATOM     10  OG1 THR E   2      20.918  23.685  42.778  0.00  0.00    +0.000 OA
ATOM     11  HG1 THR E   2      20.164  23.543  42.173  0.00  0.00    +0.000 HD
ATOM     12  CG2 THR E   2      19.514  25.298  43.909  0.00  0.00    +0.000 C 
ATOM     13  N   GLY E   3      22.557  25.837  43.215  0.00  0.00    +0.000 N 
ATOM     14  H   GLY E   3      22.270  25.075  42.607  0.00  0.00    +0.000 HD
ATOM     15  CA  GLY E   3      23.201  27.004  42.640  0.00  0.00    +0.000 C 
ATOM     16  C   GLY E   3      23.647  26.595  41.255  0.00  0.00    +0.000 C 
ATOM     17  O   GLY E   3      22.991  25.765  40.623  0.00  0.00    +0.000 OA
ATOM     18  N   ILE E   4      24.753  27.154  40.779  0.00  0.00    +0.000 N 
ATOM     19  H   ILE E   4      25.303  27.771  41.357  0.00  0.00    +0.000 HD
ATOM     20  CA  ILE E   4      25.247  26.803  39.453  0.00  0.00    +0.000 C 
ATOM     21  C   ILE E   4      26.542  26.020  39.553  0.00  0.00    +0.000 C 
ATOM     22  O   ILE E   4      27.501  26.456  40.197  0.00  0.00    +0.000 OA
ATOM     23  CB  ILE E   4      25.510  28.053  38.586  0.00  0.00    +0.000 C 
ATOM     24  CG1 ILE E   4      24.210  28.834  38.384  0.00  0.00    +0.000 C 
ATOM     25  CG2 ILE E   4      26.090  27.629  37.238  0.00  0.00    +0.000 C 
ATOM     26  CD1 ILE E   4      24.367  30.102  37.552  0.00  0.00    +0.000 C 
ATOM     27  N   NME E   5      26.562  24.854  38.921  0.00  0.00    +0.000 N 
ATOM     28  H   NME E   5      25.719  24.512  38.466  0.00  0.00    +0.000 HD
ATOM     29  C   NME E   5      27.755  24.021  38.919  0.00  0.00    +0.000 C 
TER 
REMARK  Name = /home/xianyang/aimnet2_score_pipelines/work/L1234-fixed-receptor-eint-20260921/L3/Q00959/prepared.pdb
REMARK                            x       y       z     vdW  Elec       q    Type
REMARK                         _______ _______ _______ _____ _____    ______ ____
ATOM      1  CH3 ACE F   1      29.977  24.570  26.879  0.00  0.00    +0.000 C 
ATOM      2  C   ACE F   1      28.583  25.164  26.730  0.00  0.00    +0.000 C 
ATOM      3  O   ACE F   1      28.387  26.130  25.992  0.00  0.00    +0.000 OA
ATOM      4  N   GLY F   2      27.614  24.555  27.407  0.00  0.00    +0.000 N 
ATOM      5  H   GLY F   2      27.847  23.772  28.007  0.00  0.00    +0.000 HD
ATOM      6  CA  GLY F   2      26.240  25.026  27.333  0.00  0.00    +0.000 C 
ATOM      7  C   GLY F   2      25.385  24.561  28.498  0.00  0.00    +0.000 C 
ATOM      8  O   GLY F   2      25.873  23.887  29.403  0.00  0.00    +0.000 OA
ATOM      9  N   THR F   3      24.104  24.923  28.466  0.00  0.00    +0.000 N 
ATOM     10  H   THR F   3      23.736  25.381  27.644  0.00  0.00    +0.000 HD
ATOM     11  CA  THR F   3      23.157  24.555  29.516  0.00  0.00    +0.000 C 
ATOM     12  C   THR F   3      21.837  24.166  28.861  0.00  0.00    +0.000 C 
ATOM     13  O   THR F   3      21.744  24.106  27.632  0.00  0.00    +0.000 OA
ATOM     14  CB  THR F   3      22.889  25.759  30.471  0.00  0.00    +0.000 C 
ATOM     15  OG1 THR F   3      22.065  25.344  31.569  0.00  0.00    +0.000 OA
ATOM     16  HG1 THR F   3      22.684  24.880  32.164  0.00  0.00    +0.000 HD
ATOM     17  CG2 THR F   3      22.177  26.886  29.723  0.00  0.00    +0.000 C 
ATOM     18  N   VAL F   4      20.833  23.871  29.683  0.00  0.00    +0.000 N 
ATOM     19  H   VAL F   4      20.949  24.070  30.671  0.00  0.00    +0.000 HD
ATOM     20  CA  VAL F   4      19.495  23.567  29.180  0.00  0.00    +0.000 C 
ATOM     21  C   VAL F   4      18.829  24.928  29.341  0.00  0.00    +0.000 C 
ATOM     22  O   VAL F   4      18.775  25.472  30.443  0.00  0.00    +0.000 OA
ATOM     23  CB  VAL F   4      18.763  22.527  30.047  0.00  0.00    +0.000 C 
ATOM     24  CG1 VAL F   4      17.334  22.339  29.533  0.00  0.00    +0.000 C 
ATOM     25  CG2 VAL F   4      19.515  21.212  30.018  0.00  0.00    +0.000 C 
ATOM     26  N   PRO F   5      18.326  25.506  28.244  0.00  0.00    +0.000 N 
ATOM     27  CA  PRO F   5      17.692  26.823  28.341  0.00  0.00    +0.000 C 
ATOM     28  C   PRO F   5      16.370  26.944  29.090  0.00  0.00    +0.000 C 
ATOM     29  O   PRO F   5      15.711  25.948  29.408  0.00  0.00    +0.000 OA
ATOM     30  CB  PRO F   5      17.562  27.243  26.879  0.00  0.00    +0.000 C 
ATOM     31  CG  PRO F   5      17.332  25.939  26.183  0.00  0.00    +0.000 C 
ATOM     32  CD  PRO F   5      18.327  25.017  26.853  0.00  0.00    +0.000 C 
ATOM     33  N   ASN F   6      16.032  28.198  29.379  0.00  0.00    +0.000 N 
ATOM     34  H   ASN F   6      16.640  28.937  29.031  0.00  0.00    +0.000 HD
ATOM     35  CA  ASN F   6      14.791  28.609  30.029  0.00  0.00    +0.000 C 
ATOM     36  C   ASN F   6      14.638  28.438  31.535  0.00  0.00    +0.000 C 
ATOM     37  O   ASN F   6      13.564  28.714  32.084  0.00  0.00    +0.000 OA
ATOM     38  CB  ASN F   6      13.608  27.966  29.300  0.00  0.00    +0.000 C 
ATOM     39  CG  ASN F   6      13.651  28.218  27.804  0.00  0.00    +0.000 C 
ATOM     40  OD1 ASN F   6      13.998  29.314  27.361  0.00  0.00    +0.000 OA
ATOM     41  ND2 ASN F   6      13.293  27.208  27.019  0.00  0.00    +0.000 N 
ATOM     42 HD21 ASN F   6      13.369  27.359  26.028  0.00  0.00    +0.000 HD
ATOM     43 HD22 ASN F   6      13.100  26.312  27.418  0.00  0.00    +0.000 HD
ATOM     44  N   GLY F   7      15.709  28.021  32.204  0.00  0.00    +0.000 N 
ATOM     45  H   GLY F   7      16.564  27.842  31.696  0.00  0.00    +0.000 HD
ATOM     46  CA  GLY F   7      15.663  27.842  33.645  0.00  0.00    +0.000 C 
ATOM     47  C   GLY F   7      16.424  28.912  34.411  0.00  0.00    +0.000 C 
ATOM     48  O   GLY F   7      16.865  29.911  33.838  0.00  0.00    +0.000 OA
ATOM     49  N   SER F   8      16.588  28.705  35.714  0.00  0.00    +0.000 N 
ATOM     50  H   SER F   8      16.310  27.830  36.133  0.00  0.00    +0.000 HD
ATOM     51  CA  SER F   8      17.284  29.676  36.550  0.00  0.00    +0.000 C 
ATOM     52  C   SER F   8      18.761  29.822  36.192  0.00  0.00    +0.000 C 
ATOM     53  O   SER F   8      19.330  30.900  36.339  0.00  0.00    +0.000 OA
ATOM     54  CB  SER F   8      17.139  29.307  38.031  0.00  0.00    +0.000 C 
ATOM     55  OG  SER F   8      17.695  28.036  38.302  0.00  0.00    +0.000 OA
ATOM     56  HG  SER F   8      17.851  27.909  39.248  0.00  0.00    +0.000 HD
ATOM     57  N   THR F   9      19.386  28.745  35.727  0.00  0.00    +0.000 N 
ATOM     58  H   THR F   9      18.924  27.848  35.763  0.00  0.00    +0.000 HD
ATOM     59  CA  THR F   9      20.796  28.812  35.348  0.00  0.00    +0.000 C 
ATOM     60  C   THR F   9      20.976  29.771  34.175  0.00  0.00    +0.000 C 
ATOM     61  O   THR F   9      21.793  30.691  34.242  0.00  0.00    +0.000 OA
ATOM     62  CB  THR F   9      21.346  27.424  34.968  0.00  0.00    +0.000 C 
ATOM     63  OG1 THR F   9      21.403  26.607  36.145  0.00  0.00    +0.000 OA
ATOM     64  HG1 THR F   9      22.049  26.979  36.753  0.00  0.00    +0.000 HD
ATOM     65  CG2 THR F   9      22.755  27.540  34.378  0.00  0.00    +0.000 C 
ATOM     66  N   GLU F  10      20.218  29.568  33.100  0.00  0.00    +0.000 N 
ATOM     67  H   GLU F  10      19.538  28.826  33.080  0.00  0.00    +0.000 HD
ATOM     68  CA  GLU F  10      20.333  30.468  31.957  0.00  0.00    +0.000 C 
ATOM     69  C   GLU F  10      20.025  31.908  32.365  0.00  0.00    +0.000 C 
ATOM     70  O   GLU F  10      20.700  32.840  31.924  0.00  0.00    +0.000 OA
ATOM     71  CB  GLU F  10      19.394  30.054  30.815  0.00  0.00    +0.000 C 
ATOM     72  CG  GLU F  10      19.457  31.038  29.641  0.00  0.00    +0.000 C 
ATOM     73  CD  GLU F  10      18.674  30.599  28.420  0.00  0.00    +0.000 C 
ATOM     74  OE1 GLU F  10      17.470  30.303  28.553  0.00  0.00    +0.000 OA
ATOM     75  OE2 GLU F  10      19.268  30.563  27.317  0.00  0.00    +0.000 OA
ATOM     76  N   ARG F  11      19.009  32.095  33.205  0.00  0.00    +0.000 N 
ATOM     77  H   ARG F  11      18.451  31.298  33.488  0.00  0.00    +0.000 HD
ATOM     78  CA  ARG F  11      18.645  33.438  33.649  0.00  0.00    +0.000 C 
ATOM     79  C   ARG F  11      19.818  34.150  34.313  0.00  0.00    +0.000 C 
ATOM     80  O   ARG F  11      20.084  35.322  34.030  0.00  0.00    +0.000 OA
ATOM     81  CB  ARG F  11      17.464  33.387  34.629  0.00  0.00    +0.000 C 
ATOM     82  CG  ARG F  11      17.198  34.718  35.341  0.00  0.00    +0.000 C 
ATOM     83  CD  ARG F  11      15.987  34.628  36.263  0.00  0.00    +0.000 C 
ATOM     84  NE  ARG F  11      15.790  35.830  37.075  0.00  0.00    +0.000 N 
ATOM     85  HE  ARG F  11      14.982  36.386  36.829  0.00  0.00    +0.000 HD
ATOM     86  CZ  ARG F  11      16.491  36.135  38.166  0.00  0.00    +0.000 C 
ATOM     87  NH1 ARG F  11      17.456  35.331  38.600  0.00  0.00    +0.000 N 
ATOM     88 HH11 ARG F  11      17.675  34.526  38.039  0.00  0.00    +0.000 HD
ATOM     89 HH12 ARG F  11      18.072  35.622  39.336  0.00  0.00    +0.000 HD
ATOM     90  NH2 ARG F  11      16.218  37.245  38.837  0.00  0.00    +0.000 N 
ATOM     91 HH21 ARG F  11      16.724  37.476  39.673  0.00  0.00    +0.000 HD
ATOM     92 HH22 ARG F  11      15.626  37.939  38.407  0.00  0.00    +0.000 HD
ATOM     93  N   NME F  12      20.518  33.447  35.200  0.00  0.00    +0.000 N 
ATOM     94  H   NME F  12      20.309  32.463  35.320  0.00  0.00    +0.000 HD
ATOM     95  C   NME F  12      21.651  34.040  35.896  0.00  0.00    +0.000 C 
TER 
REMARK  Name = /home/xianyang/aimnet2_score_pipelines/work/L1234-fixed-receptor-eint-20260921/L3/Q00959/prepared.pdb
REMARK                            x       y       z     vdW  Elec       q    Type
REMARK                         _______ _______ _______ _____ _____    ______ ____
ATOM      1  CH3 ACE G   1      31.402  21.330  29.962  0.00  0.00    +0.000 C 
ATOM      2  C   ACE G   1      29.910  21.617  29.891  0.00  0.00    +0.000 C 
ATOM      3  O   ACE G   1      29.441  22.248  28.951  0.00  0.00    +0.000 OA
ATOM      4  N   PHE G   2      29.179  21.135  30.892  0.00  0.00    +0.000 N 
ATOM      5  H   PHE G   2      29.641  20.658  31.650  0.00  0.00    +0.000 HD
ATOM      6  CA  PHE G   2      27.732  21.335  30.996  0.00  0.00    +0.000 C 
ATOM      7  C   PHE G   2      27.476  22.162  32.267  0.00  0.00    +0.000 C 
ATOM      8  O   PHE G   2      27.850  21.755  33.367  0.00  0.00    +0.000 OA
ATOM      9  CB  PHE G   2      27.034  19.964  31.070  0.00  0.00    +0.000 C 
ATOM     10  CG  PHE G   2      25.536  20.031  31.238  0.00  0.00    +0.000 A 
ATOM     11  CD1 PHE G   2      24.761  20.876  30.451  0.00  0.00    +0.000 A 
ATOM     12  CD2 PHE G   2      24.896  19.217  32.171  0.00  0.00    +0.000 A 
ATOM     13  CE1 PHE G   2      23.368  20.911  30.591  0.00  0.00    +0.000 A 
ATOM     14  CE2 PHE G   2      23.507  19.247  32.316  0.00  0.00    +0.000 A 
ATOM     15  CZ  PHE G   2      22.743  20.095  31.525  0.00  0.00    +0.000 A 
ATOM     16  N   ILE G   3      26.865  23.335  32.094  0.00  0.00    +0.000 N 
ATOM     17  H   ILE G   3      26.547  23.580  31.161  0.00  0.00    +0.000 HD
ATOM     18  CA  ILE G   3      26.557  24.253  33.191  0.00  0.00    +0.000 C 
ATOM     19  C   ILE G   3      25.088  24.066  33.556  0.00  0.00    +0.000 C 
ATOM     20  O   ILE G   3      24.212  24.268  32.718  0.00  0.00    +0.000 OA
ATOM     21  CB  ILE G   3      26.792  25.714  32.745  0.00  0.00    +0.000 C 
ATOM     22  CG1 ILE G   3      28.154  25.822  32.053  0.00  0.00    +0.000 C 
ATOM     23  CG2 ILE G   3      26.713  26.654  33.937  0.00  0.00    +0.000 C 
ATOM     24  CD1 ILE G   3      29.309  25.250  32.861  0.00  0.00    +0.000 C 
ATOM     25  N   TYR G   4      24.817  23.710  34.809  0.00  0.00    +0.000 N 
ATOM     26  H   TYR G   4      25.557  23.530  35.472  0.00  0.00    +0.000 HD
ATOM     27  CA  TYR G   4      23.438  23.447  35.207  0.00  0.00    +0.000 C 
ATOM     28  C   TYR G   4      23.258  23.469  36.727  0.00  0.00    +0.000 C 
ATOM     29  O   TYR G   4      24.202  23.692  37.485  0.00  0.00    +0.000 OA
ATOM     30  CB  TYR G   4      23.045  22.068  34.656  0.00  0.00    +0.000 C 
ATOM     31  CG  TYR G   4      21.564  21.741  34.653  0.00  0.00    +0.000 A 
ATOM     32  CD1 TYR G   4      20.690  22.391  33.788  0.00  0.00    +0.000 A 
ATOM     33  CD2 TYR G   4      21.045  20.761  35.505  0.00  0.00    +0.000 A 
ATOM     34  CE1 TYR G   4      19.327  22.076  33.761  0.00  0.00    +0.000 A 
ATOM     35  CE2 TYR G   4      19.682  20.442  35.490  0.00  0.00    +0.000 A 
ATOM     36  CZ  TYR G   4      18.834  21.103  34.616  0.00  0.00    +0.000 A 
ATOM     37  OH  TYR G   4      17.488  20.807  34.602  0.00  0.00    +0.000 OA
ATOM     38  HH  TYR G   4      17.198  20.131  35.251  0.00  0.00    +0.000 HD
ATOM     39  N   ASP G   5      22.018  23.243  37.145  0.00  0.00    +0.000 N 
ATOM     40  H   ASP G   5      21.311  23.001  36.465  0.00  0.00    +0.000 HD
ATOM     41  CA  ASP G   5      21.635  23.189  38.546  0.00  0.00    +0.000 C 
ATOM     42  C   ASP G   5      22.601  22.293  39.326  0.00  0.00    +0.000 C 
ATOM     43  O   ASP G   5      22.853  21.147  38.947  0.00  0.00    +0.000 OA
ATOM     44  CB  ASP G   5      20.220  22.625  38.648  0.00  0.00    +0.000 C 
ATOM     45  CG  ASP G   5      19.739  22.524  40.070  0.00  0.00    +0.000 C 
ATOM     46  OD1 ASP G   5      19.318  23.559  40.627  0.00  0.00    +0.000 OA
ATOM     47  OD2 ASP G   5      19.788  21.408  40.635  0.00  0.00    +0.000 OA
ATOM     48  N   ALA G   6      23.134  22.820  40.420  0.00  0.00    +0.000 N 
ATOM     49  H   ALA G   6      22.918  23.781  40.653  0.00  0.00    +0.000 HD
ATOM     50  CA  ALA G   6      24.085  22.082  41.238  0.00  0.00    +0.000 C 
ATOM     51  C   ALA G   6      23.538  20.805  41.870  0.00  0.00    +0.000 C 
ATOM     52  O   ALA G   6      24.234  19.794  41.916  0.00  0.00    +0.000 OA
ATOM     53  CB  ALA G   6      24.644  22.995  42.327  0.00  0.00    +0.000 C 
ATOM     54  N   ALA G   7      22.306  20.844  42.372  0.00  0.00    +0.000 N 
ATOM     55  H   ALA G   7      21.708  21.636  42.183  0.00  0.00    +0.000 HD
ATOM     56  CA  ALA G   7      21.735  19.663  43.014  0.00  0.00    +0.000 C 
ATOM     57  C   ALA G   7      21.650  18.487  42.050  0.00  0.00    +0.000 C 
ATOM     58  O   ALA G   7      21.997  17.354  42.398  0.00  0.00    +0.000 OA
ATOM     59  CB  ALA G   7      20.351  19.984  43.579  0.00  0.00    +0.000 C 
ATOM     60  N   NME G   8      21.189  18.751  40.835  0.00  0.00    +0.000 N 
ATOM     61  H   NME G   8      20.864  19.692  40.617  0.00  0.00    +0.000 HD
ATOM     62  C   NME G   8      21.075  17.688  39.850  0.00  0.00    +0.000 C 
TER 
REMARK  Name = /home/xianyang/aimnet2_score_pipelines/work/L1234-fixed-receptor-eint-20260921/L3/Q00959/prepared.pdb
REMARK                            x       y       z     vdW  Elec       q    Type
REMARK                         _______ _______ _______ _____ _____    ______ ____
ATOM      1  CH3 ACE H   1      20.120  29.420  46.553  0.00  0.00    +0.000 C 
ATOM      2  C   ACE H   1      19.672  28.019  46.956  0.00  0.00    +0.000 C 
ATOM      3  O   ACE H   1      20.477  27.221  47.443  0.00  0.00    +0.000 OA
ATOM      4  N   GLY H   2      18.394  27.719  46.773  0.00  0.00    +0.000 N 
ATOM      5  H   GLY H   2      17.759  28.390  46.365  0.00  0.00    +0.000 HD
ATOM      6  CA  GLY H   2      17.908  26.396  47.118  0.00  0.00    +0.000 C 
ATOM      7  C   GLY H   2      16.571  26.112  46.473  0.00  0.00    +0.000 C 
ATOM      8  O   GLY H   2      15.993  26.988  45.828  0.00  0.00    +0.000 OA
ATOM      9  N   TYR H   3      16.096  24.879  46.608  0.00  0.00    +0.000 N 
ATOM     10  H   TYR H   3      16.587  24.205  47.173  0.00  0.00    +0.000 HD
ATOM     11  CA  TYR H   3      14.790  24.519  46.076  0.00  0.00    +0.000 C 
ATOM     12  C   TYR H   3      13.770  24.901  47.132  0.00  0.00    +0.000 C 
ATOM     13  O   TYR H   3      14.019  24.764  48.329  0.00  0.00    +0.000 OA
ATOM     14  CB  TYR H   3      14.655  23.015  45.851  0.00  0.00    +0.000 C 
ATOM     15  CG  TYR H   3      15.441  22.416  44.711  0.00  0.00    +0.000 A 
ATOM     16  CD1 TYR H   3      16.089  23.210  43.761  0.00  0.00    +0.000 A 
ATOM     17  CD2 TYR H   3      15.515  21.032  44.575  0.00  0.00    +0.000 A 
ATOM     18  CE1 TYR H   3      16.797  22.627  42.704  0.00  0.00    +0.000 A 
ATOM     19  CE2 TYR H   3      16.210  20.444  43.534  0.00  0.00    +0.000 A 
ATOM     20  CZ  TYR H   3      16.851  21.239  42.602  0.00  0.00    +0.000 A 
ATOM     21  OH  TYR H   3      17.543  20.637  41.580  0.00  0.00    +0.000 OA
ATOM     22  HH  TYR H   3      18.364  21.089  41.269  0.00  0.00    +0.000 HD
ATOM     23  N   GLY H   4      12.613  25.374  46.694  0.00  0.00    +0.000 N 
ATOM     24  H   GLY H   4      12.424  25.440  45.697  0.00  0.00    +0.000 HD
ATOM     25  CA  GLY H   4      11.581  25.727  47.643  0.00  0.00    +0.000 C 
ATOM     26  C   GLY H   4      10.235  25.401  47.046  0.00  0.00    +0.000 C 
ATOM     27  O   GLY H   4      10.109  25.268  45.829  0.00  0.00    +0.000 OA
ATOM     28  N   NME H   5       9.235  25.236  47.903  0.00  0.00    +0.000 N 
ATOM     29  H   NME H   5       9.410  25.335  48.891  0.00  0.00    +0.000 HD
ATOM     30  C   NME H   5       7.885  24.959  47.439  0.00  0.00    +0.000 C 
TER 
