REMARK  Name = /data/user_data/xianyang/t3-aimnet-affinity-balanced/L4/Q6SZW1/pocket.pdb
REMARK                            x       y       z     vdW  Elec       q    Type
REMARK                         _______ _______ _______ _____ _____    ______ ____
ATOM      1  N   LEU A   1     -13.275 -23.209   6.406  0.00  0.00    +0.000 N 
ATOM      2  CA  LEU A   1     -13.700 -24.605   6.274  0.00  0.00    +0.000 C 
ATOM      3  C   LEU A   1     -13.350 -25.370   7.553  0.00  0.00    +0.000 C 
ATOM      4  O   LEU A   1     -12.172 -25.585   7.858  0.00  0.00    +0.000 OA
ATOM      5  CB  LEU A   1     -13.033 -25.256   5.062  0.00  0.00    +0.000 C 
ATOM      6  CG  LEU A   1     -13.290 -26.753   4.843  0.00  0.00    +0.000 C 
ATOM      7  CD2 LEU A   1     -14.779 -27.025   4.701  0.00  0.00    +0.000 C 
ATOM      8  CD1 LEU A   1     -12.522 -27.287   3.637  0.00  0.00    +0.000 C 
ATOM      9  H   LEU A   1     -13.509 -22.700   5.553  0.00  0.00    +0.000 HD
ATOM     10  H   LEU A   1     -12.267 -23.173   6.558  0.00  0.00    +0.000 HD
ATOM     11  H   LEU A   1     -13.753 -22.781   7.199  0.00  0.00    +0.000 HD
TER 
REMARK  Name = /data/user_data/xianyang/t3-aimnet-affinity-balanced/L4/Q6SZW1/pocket.pdb
REMARK                            x       y       z     vdW  Elec       q    Type
REMARK                         _______ _______ _______ _____ _____    ______ ____
ATOM      1  N   LEU B   1     -12.774 -28.458   9.542  0.00  0.00    +0.000 N 
ATOM      2  CA  LEU B   1     -12.444 -29.853   9.289  0.00  0.00    +0.000 C 
ATOM      3  C   LEU B   1     -12.377 -30.574  10.634  0.00  0.00    +0.000 C 
ATOM      4  O   LEU B   1     -11.317 -30.699  11.245  0.00  0.00    +0.000 OA
ATOM      5  CB  LEU B   1     -11.168 -29.948   8.526  0.00  0.00    +0.000 C 
ATOM      6  CG  LEU B   1     -11.284 -29.387   7.107  0.00  0.00    +0.000 C 
ATOM      7  CD2 LEU B   1      -9.935 -29.408   6.384  0.00  0.00    +0.000 C 
ATOM      8  CD1 LEU B   1     -12.323 -30.174   6.314  0.00  0.00    +0.000 C 
ATOM      9  H   LEU B   1     -12.825 -27.955   8.656  0.00  0.00    +0.000 HD
ATOM     10  H   LEU B   1     -12.054 -28.039  10.130  0.00  0.00    +0.000 HD
ATOM     11  H   LEU B   1     -13.675 -28.402  10.017  0.00  0.00    +0.000 HD
TER 
REMARK  Name = /data/user_data/xianyang/t3-aimnet-affinity-balanced/L4/Q6SZW1/pocket.pdb
REMARK                            x       y       z     vdW  Elec       q    Type
REMARK                         _______ _______ _______ _____ _____    ______ ____
ATOM      1  N   LEU C   1     -15.133 -34.738   5.690  0.00  0.00    +0.000 N 
ATOM      2  CA  LEU C   1     -15.297 -34.879   4.244  0.00  0.00    +0.000 C 
ATOM      3  C   LEU C   1     -15.696 -36.289   3.822  0.00  0.00    +0.000 C 
ATOM      4  O   LEU C   1     -15.679 -36.584   2.629  0.00  0.00    +0.000 OA
ATOM      5  CB  LEU C   1     -14.018 -34.463   3.513  0.00  0.00    +0.000 C 
ATOM      6  CG  LEU C   1     -13.502 -33.042   3.792  0.00  0.00    +0.000 C 
ATOM      7  CD1 LEU C   1     -12.245 -32.780   2.991  0.00  0.00    +0.000 C 
ATOM      8  CD2 LEU C   1     -14.575 -31.980   3.509  0.00  0.00    +0.000 C 
ATOM      9  H   LEU C   1     -14.867 -33.778   5.910  0.00  0.00    +0.000 HD
ATOM     10  H   LEU C   1     -14.405 -35.375   6.013  0.00  0.00    +0.000 HD
ATOM     11  H   LEU C   1     -16.012 -34.963   6.155  0.00  0.00    +0.000 HD
TER 
REMARK  Name = /data/user_data/xianyang/t3-aimnet-affinity-balanced/L4/Q6SZW1/pocket.pdb
REMARK                            x       y       z     vdW  Elec       q    Type
REMARK                         _______ _______ _______ _____ _____    ______ ____
ATOM      1  N   PRO D   1      -8.797 -23.504   5.785  0.00  0.00    +0.000 N 
ATOM      2  CA  PRO D   1      -9.189 -24.711   6.530  0.00  0.00    +0.000 C 
ATOM      3  C   PRO D   1      -8.803 -24.610   7.995  0.00  0.00    +0.000 C 
ATOM      4  O   PRO D   1      -7.703 -24.167   8.328  0.00  0.00    +0.000 OA
ATOM      5  CB  PRO D   1      -8.388 -25.820   5.840  0.00  0.00    +0.000 C 
ATOM      6  CG  PRO D   1      -7.951 -25.237   4.530  0.00  0.00    +0.000 C 
ATOM      7  CD  PRO D   1      -7.762 -23.778   4.794  0.00  0.00    +0.000 C 
ATOM      8  H   PRO D   1      -9.618 -23.132   5.308  0.00  0.00    +0.000 HD
ATOM      9  H   PRO D   1      -8.419 -22.833   6.454  0.00  0.00    +0.000 HD
TER 
REMARK  Name = /data/user_data/xianyang/t3-aimnet-affinity-balanced/L4/Q6SZW1/pocket.pdb
REMARK                            x       y       z     vdW  Elec       q    Type
REMARK                         _______ _______ _______ _____ _____    ______ ____
ATOM      1  N   ILE E   1      -8.326 -27.140  11.145  0.00  0.00    +0.000 N 
ATOM      2  CA  ILE E   1      -8.121 -28.563  11.396  0.00  0.00    +0.000 C 
ATOM      3  C   ILE E   1      -8.368 -28.836  12.875  0.00  0.00    +0.000 C 
ATOM      4  O   ILE E   1      -7.648 -28.315  13.733  0.00  0.00    +0.000 OA
ATOM      5  CB  ILE E   1      -6.695 -28.995  11.010  0.00  0.00    +0.000 C 
ATOM      6  CG1 ILE E   1      -6.313 -28.490   9.612  0.00  0.00    +0.000 C 
ATOM      7  CG2 ILE E   1      -6.501 -30.497  11.202  0.00  0.00    +0.000 C 
ATOM      8  CD1 ILE E   1      -7.297 -28.793   8.556  0.00  0.00    +0.000 C 
ATOM      9  H   ILE E   1      -8.164 -26.942  10.158  0.00  0.00    +0.000 HD
ATOM     10  H   ILE E   1      -7.674 -26.597  11.712  0.00  0.00    +0.000 HD
ATOM     11  H   ILE E   1      -9.283 -26.886  11.390  0.00  0.00    +0.000 HD
TER 
REMARK  Name = /data/user_data/xianyang/t3-aimnet-affinity-balanced/L4/Q6SZW1/pocket.pdb
REMARK                            x       y       z     vdW  Elec       q    Type
REMARK                         _______ _______ _______ _____ _____    ______ ____
ATOM      1  N   PHE F   1      -8.656 -33.829  12.416  0.00  0.00    +0.000 N 
ATOM      2  CA  PHE F   1      -9.058 -34.315  11.109  0.00  0.00    +0.000 C 
ATOM      3  C   PHE F   1      -7.873 -35.008  10.456  0.00  0.00    +0.000 C 
ATOM      4  O   PHE F   1      -6.773 -34.448  10.411  0.00  0.00    +0.000 OA
ATOM      5  CB  PHE F   1      -9.546 -33.131  10.279  0.00  0.00    +0.000 C 
ATOM      6  CG  PHE F   1      -9.856 -33.442   8.846  0.00  0.00    +0.000 A 
ATOM      7  CD2 PHE F   1     -11.057 -34.032   8.490  0.00  0.00    +0.000 A 
ATOM      8  CD1 PHE F   1      -8.980 -33.064   7.846  0.00  0.00    +0.000 A 
ATOM      9  CE2 PHE F   1     -11.353 -34.277   7.155  0.00  0.00    +0.000 A 
ATOM     10  CE1 PHE F   1      -9.270 -33.312   6.520  0.00  0.00    +0.000 A 
ATOM     11  CZ  PHE F   1     -10.456 -33.912   6.177  0.00  0.00    +0.000 A 
ATOM     12  H   PHE F   1      -9.445 -33.362  12.863  0.00  0.00    +0.000 HD
ATOM     13  H   PHE F   1      -7.885 -33.169  12.311  0.00  0.00    +0.000 HD
ATOM     14  H   PHE F   1      -8.355 -34.614  12.993  0.00  0.00    +0.000 HD
TER 
REMARK  Name = /data/user_data/xianyang/t3-aimnet-affinity-balanced/L4/Q6SZW1/pocket.pdb
REMARK                            x       y       z     vdW  Elec       q    Type
REMARK                         _______ _______ _______ _____ _____    ______ ____
ATOM      1  N   TRP G   1      -5.949 -35.990   7.292  0.00  0.00    +0.000 N 
ATOM      2  CA  TRP G   1      -5.901 -35.510   5.919  0.00  0.00    +0.000 C 
ATOM      3  C   TRP G   1      -6.129 -36.683   4.971  0.00  0.00    +0.000 C 
ATOM      4  O   TRP G   1      -5.385 -37.672   5.034  0.00  0.00    +0.000 OA
ATOM      5  CB  TRP G   1      -4.565 -34.833   5.595  0.00  0.00    +0.000 C 
ATOM      6  CG  TRP G   1      -4.233 -33.608   6.411  0.00  0.00    +0.000 C 
ATOM      7  CD1 TRP G   1      -4.851 -33.182   7.552  0.00  0.00    +0.000 C 
ATOM      8  CD2 TRP G   1      -3.189 -32.656   6.144  0.00  0.00    +0.000 A 
ATOM      9  NE1 TRP G   1      -4.259 -32.027   8.012  0.00  0.00    +0.000 NA
ATOM     10  CE2 TRP G   1      -3.239 -31.682   7.164  0.00  0.00    +0.000 A 
ATOM     11  CE3 TRP G   1      -2.219 -32.532   5.141  0.00  0.00    +0.000 A 
ATOM     12  CZ2 TRP G   1      -2.353 -30.604   7.213  0.00  0.00    +0.000 A 
ATOM     13  CZ3 TRP G   1      -1.340 -31.456   5.192  0.00  0.00    +0.000 A 
ATOM     14  CH2 TRP G   1      -1.411 -30.513   6.223  0.00  0.00    +0.000 A 
ATOM     15  N   PRO G   2      -7.135 -36.634   4.106  0.00  0.00    +0.000 N 
ATOM     16  CA  PRO G   2      -7.301 -37.701   3.118  0.00  0.00    +0.000 C 
ATOM     17  C   PRO G   2      -6.307 -37.553   1.980  0.00  0.00    +0.000 C 
ATOM     18  O   PRO G   2      -5.825 -36.460   1.678  0.00  0.00    +0.000 OA
ATOM     19  CB  PRO G   2      -8.739 -37.505   2.626  0.00  0.00    +0.000 C 
ATOM     20  CG  PRO G   2      -8.975 -36.035   2.776  0.00  0.00    +0.000 C 
ATOM     21  CD  PRO G   2      -8.154 -35.578   3.964  0.00  0.00    +0.000 C 
ATOM     22  H   TRP G   1      -6.851 -36.432   7.466  0.00  0.00    +0.000 HD
ATOM     23  H   TRP G   1      -5.826 -35.205   7.931  0.00  0.00    +0.000 HD
ATOM     24  H   TRP G   1      -5.203 -36.669   7.441  0.00  0.00    +0.000 HD
TER 
REMARK  Name = /data/user_data/xianyang/t3-aimnet-affinity-balanced/L4/Q6SZW1/pocket.pdb
REMARK                            x       y       z     vdW  Elec       q    Type
REMARK                         _______ _______ _______ _____ _____    ______ ____
ATOM      1  N   LEU H   1     -11.039 -38.126  -2.924  0.00  0.00    +0.000 N 
ATOM      2  CA  LEU H   1     -11.987 -37.030  -3.046  0.00  0.00    +0.000 C 
ATOM      3  C   LEU H   1     -12.355 -36.794  -4.505  0.00  0.00    +0.000 C 
ATOM      4  O   LEU H   1     -11.545 -37.042  -5.405  0.00  0.00    +0.000 OA
ATOM      5  CB  LEU H   1     -11.401 -35.736  -2.473  0.00  0.00    +0.000 C 
ATOM      6  CG  LEU H   1     -11.034 -35.685  -0.992  0.00  0.00    +0.000 C 
ATOM      7  CD1 LEU H   1     -10.261 -34.404  -0.677  0.00  0.00    +0.000 C 
ATOM      8  CD2 LEU H   1     -12.298 -35.779  -0.163  0.00  0.00    +0.000 C 
ATOM      9  H   LEU H   1     -11.450 -38.976  -3.311  0.00  0.00    +0.000 HD
ATOM     10  H   LEU H   1     -10.816 -38.274  -1.940  0.00  0.00    +0.000 HD
ATOM     11  H   LEU H   1     -10.187 -37.897  -3.435  0.00  0.00    +0.000 HD
TER 
REMARK  Name = /data/user_data/xianyang/t3-aimnet-affinity-balanced/L4/Q6SZW1/pocket.pdb
REMARK                            x       y       z     vdW  Elec       q    Type
REMARK                         _______ _______ _______ _____ _____    ______ ____
ATOM      1  N   VAL I   1      -8.731 -28.463  -2.594  0.00  0.00    +0.000 N 
ATOM      2  CA  VAL I   1      -8.865 -27.895  -1.255  0.00  0.00    +0.000 C 
ATOM      3  C   VAL I   1      -7.629 -28.212  -0.424  0.00  0.00    +0.000 C 
ATOM      4  O   VAL I   1      -7.241 -27.433   0.460  0.00  0.00    +0.000 OA
ATOM      5  CB  VAL I   1     -10.161 -28.398  -0.596  0.00  0.00    +0.000 C 
ATOM      6  CG1 VAL I   1      -9.971 -29.810  -0.046  0.00  0.00    +0.000 C 
ATOM      7  CG2 VAL I   1     -10.615 -27.427   0.491  0.00  0.00    +0.000 C 
ATOM      8  N   LEU I   2      -6.949 -29.317  -0.741  0.00  0.00    +0.000 N 
ATOM      9  CA  LEU I   2      -5.787 -29.762   0.018  0.00  0.00    +0.000 C 
ATOM     10  C   LEU I   2      -4.547 -28.924  -0.259  0.00  0.00    +0.000 C 
ATOM     11  O   LEU I   2      -3.537 -29.098   0.430  0.00  0.00    +0.000 OA
ATOM     12  CB  LEU I   2      -5.490 -31.229  -0.299  0.00  0.00    +0.000 C 
ATOM     13  CG  LEU I   2      -6.515 -32.287   0.124  0.00  0.00    +0.000 C 
ATOM     14  CD1 LEU I   2      -6.384 -33.520  -0.733  0.00  0.00    +0.000 C 
ATOM     15  CD2 LEU I   2      -6.317 -32.642   1.588  0.00  0.00    +0.000 C 
ATOM     16  N   THR I   3      -4.600 -28.016  -1.227  0.00  0.00    +0.000 N 
ATOM     17  CA  THR I   3      -3.474 -27.149  -1.547  0.00  0.00    +0.000 C 
ATOM     18  C   THR I   3      -3.460 -25.853  -0.741  0.00  0.00    +0.000 C 
ATOM     19  O   THR I   3      -2.535 -25.052  -0.911  0.00  0.00    +0.000 OA
ATOM     20  CB  THR I   3      -3.471 -26.823  -3.042  0.00  0.00    +0.000 C 
ATOM     21  OG1 THR I   3      -4.562 -25.940  -3.350  0.00  0.00    +0.000 OA
ATOM     22  CG2 THR I   3      -3.602 -28.094  -3.857  0.00  0.00    +0.000 C 
ATOM     23  N   PHE I   4      -4.434 -25.636   0.139  0.00  0.00    +0.000 N 
ATOM     24  CA  PHE I   4      -4.546 -24.395   0.897  0.00  0.00    +0.000 C 
ATOM     25  C   PHE I   4      -3.996 -24.597   2.298  0.00  0.00    +0.000 C 
ATOM     26  O   PHE I   4      -4.263 -25.618   2.928  0.00  0.00    +0.000 OA
ATOM     27  CB  PHE I   4      -6.005 -23.924   0.972  0.00  0.00    +0.000 C 
ATOM     28  CG  PHE I   4      -6.520 -23.389  -0.313  0.00  0.00    +0.000 A 
ATOM     29  CD1 PHE I   4      -7.035 -24.240  -1.274  0.00  0.00    +0.000 A 
ATOM     30  CD2 PHE I   4      -6.465 -22.034  -0.585  0.00  0.00    +0.000 A 
ATOM     31  CE1 PHE I   4      -7.494 -23.754  -2.475  0.00  0.00    +0.000 A 
ATOM     32  CE2 PHE I   4      -6.919 -21.536  -1.788  0.00  0.00    +0.000 A 
ATOM     33  CZ  PHE I   4      -7.444 -22.397  -2.735  0.00  0.00    +0.000 A 
ATOM     34  N   ASN I   5      -3.229 -23.616   2.782  0.00  0.00    +0.000 N 
ATOM     35  CA  ASN I   5      -2.626 -23.725   4.101  0.00  0.00    +0.000 C 
ATOM     36  C   ASN I   5      -3.703 -23.689   5.170  0.00  0.00    +0.000 C 
ATOM     37  O   ASN I   5      -4.534 -22.779   5.184  0.00  0.00    +0.000 OA
ATOM     38  CB  ASN I   5      -1.643 -22.586   4.335  0.00  0.00    +0.000 C 
ATOM     39  CG  ASN I   5      -0.845 -22.778   5.594  0.00  0.00    +0.000 C 
ATOM     40  OD1 ASN I   5      -0.625 -23.917   6.035  0.00  0.00    +0.000 OA
ATOM     41  ND2 ASN I   5      -0.409 -21.677   6.190  0.00  0.00    +0.000 N 
ATOM     42  N   GLY I   6      -3.677 -24.676   6.076  0.00  0.00    +0.000 N 
ATOM     43  CA  GLY I   6      -4.655 -24.771   7.137  0.00  0.00    +0.000 C 
ATOM     44  C   GLY I   6      -4.134 -24.269   8.479  0.00  0.00    +0.000 C 
ATOM     45  O   GLY I   6      -2.947 -24.028   8.679  0.00  0.00    +0.000 OA
ATOM     46  N   ILE I   7      -5.068 -24.100   9.406  0.00  0.00    +0.000 N 
ATOM     47  CA  ILE I   7      -4.773 -23.680  10.770  0.00  0.00    +0.000 C 
ATOM     48  C   ILE I   7      -5.204 -24.797  11.709  0.00  0.00    +0.000 C 
ATOM     49  O   ILE I   7      -6.343 -25.275  11.634  0.00  0.00    +0.000 OA
ATOM     50  CB  ILE I   7      -5.479 -22.356  11.110  0.00  0.00    +0.000 C 
ATOM     51  CG1 ILE I   7      -4.864 -21.224  10.285  0.00  0.00    +0.000 C 
ATOM     52  CG2 ILE I   7      -5.391 -22.041  12.625  0.00  0.00    +0.000 C 
ATOM     53  CD1 ILE I   7      -5.731 -19.963  10.240  0.00  0.00    +0.000 C 
ATOM     54  H   VAL I   1      -9.564 -28.245  -3.141  0.00  0.00    +0.000 HD
ATOM     55  H   VAL I   1      -8.625 -29.475  -2.525  0.00  0.00    +0.000 HD
ATOM     56  H   VAL I   1      -7.910 -28.066  -3.051  0.00  0.00    +0.000 HD
ATOM     57  H   LEU I   2      -7.243 -29.850  -1.515  0.00  0.00    +0.000 HD
ATOM     58  H   THR I   3      -5.431 -27.926  -1.747  0.00  0.00    +0.000 HD
ATOM     59  H   THR I   3      -5.401 -26.373  -3.127  0.00  0.00    +0.000 HD
ATOM     60  H   PHE I   4      -5.106 -26.341   0.284  0.00  0.00    +0.000 HD
ATOM     61  H   ASN I   5      -3.070 -22.810   2.240  0.00  0.00    +0.000 HD
ATOM     62  H   ASN I   5      -0.609 -20.795   5.802  0.00  0.00    +0.000 HD
ATOM     63  H   ASN I   5       0.115 -21.742   7.021  0.00  0.00    +0.000 HD
ATOM     64  H   GLY I   6      -2.970 -25.358   6.017  0.00  0.00    +0.000 HD
ATOM     65  H   ILE I   7      -6.007 -24.267   9.160  0.00  0.00    +0.000 HD
TER 
