REMARK  Name = /data/user_data/xianyang/t3-aimnet-affinity-balanced/L4/O94782/pocket.pdb
REMARK                            x       y       z     vdW  Elec       q    Type
REMARK                         _______ _______ _______ _____ _____    ______ ____
ATOM      1  N   ASN A   1     135.814 132.438 177.291  0.00  0.00    +0.000 N 
ATOM      2  CA  ASN A   1     134.411 132.380 176.900  0.00  0.00    +0.000 C 
ATOM      3  C   ASN A   1     134.260 131.892 175.462  0.00  0.00    +0.000 C 
ATOM      4  O   ASN A   1     133.455 131.005 175.179  0.00  0.00    +0.000 OA
ATOM      5  CB  ASN A   1     133.753 133.752 177.061  0.00  0.00    +0.000 C 
ATOM      6  CG  ASN A   1     133.722 134.217 178.504  0.00  0.00    +0.000 C 
ATOM      7  OD1 ASN A   1     134.612 133.893 179.291  0.00  0.00    +0.000 OA
ATOM      8  ND2 ASN A   1     132.695 134.982 178.859  0.00  0.00    +0.000 N 
ATOM      9  N   ASN A   2     135.041 132.478 174.558  0.00  0.00    +0.000 N 
ATOM     10  CA  ASN A   2     135.015 132.145 173.136  0.00  0.00    +0.000 C 
ATOM     11  C   ASN A   2     136.424 131.729 172.726  0.00  0.00    +0.000 C 
ATOM     12  O   ASN A   2     137.230 132.563 172.307  0.00  0.00    +0.000 OA
ATOM     13  CB  ASN A   2     134.516 133.323 172.306  0.00  0.00    +0.000 C 
ATOM     14  CG  ASN A   2     133.253 133.939 172.872  0.00  0.00    +0.000 C 
ATOM     15  OD1 ASN A   2     132.233 133.267 173.020  0.00  0.00    +0.000 OA
ATOM     16  ND2 ASN A   2     133.320 135.221 173.202  0.00  0.00    +0.000 N 
ATOM     17  H   ASN A   1     136.237 131.517 177.178  0.00  0.00    +0.000 HD
ATOM     18  H   ASN A   1     135.883 132.726 178.267  0.00  0.00    +0.000 HD
ATOM     19  H   ASN A   1     136.304 133.112 176.702  0.00  0.00    +0.000 HD
ATOM     20  H   ASN A   1     132.005 135.217 178.198  0.00  0.00    +0.000 HD
ATOM     21  H   ASN A   1     132.624 135.313 179.783  0.00  0.00    +0.000 HD
ATOM     22  H   ASN A   2     135.669 133.172 174.863  0.00  0.00    +0.000 HD
ATOM     23  H   ASN A   2     134.157 135.721 173.066  0.00  0.00    +0.000 HD
ATOM     24  H   ASN A   2     132.533 135.673 173.583  0.00  0.00    +0.000 HD
TER 
REMARK  Name = /data/user_data/xianyang/t3-aimnet-affinity-balanced/L4/O94782/pocket.pdb
REMARK                            x       y       z     vdW  Elec       q    Type
REMARK                         _______ _______ _______ _____ _____    ______ ____
ATOM      1  N   ASN B   1     131.317 132.309 165.287  0.00  0.00    +0.000 N 
ATOM      2  CA  ASN B   1     131.271 133.464 166.175  0.00  0.00    +0.000 C 
ATOM      3  C   ASN B   1     130.969 134.738 165.400  0.00  0.00    +0.000 C 
ATOM      4  O   ASN B   1     130.062 135.498 165.759  0.00  0.00    +0.000 OA
ATOM      5  CB  ASN B   1     132.594 133.597 166.927  0.00  0.00    +0.000 C 
ATOM      6  CG  ASN B   1     132.534 133.015 168.320  0.00  0.00    +0.000 C 
ATOM      7  OD1 ASN B   1     131.642 133.340 169.102  0.00  0.00    +0.000 OA
ATOM      8  ND2 ASN B   1     133.487 132.149 168.641  0.00  0.00    +0.000 N 
ATOM      9  H   ASN B   1     130.431 132.227 164.789  0.00  0.00    +0.000 HD
ATOM     10  H   ASN B   1     131.478 131.464 165.836  0.00  0.00    +0.000 HD
ATOM     11  H   ASN B   1     132.075 132.427 164.615  0.00  0.00    +0.000 HD
ATOM     12  H   ASN B   1     134.183 131.917 167.984  0.00  0.00    +0.000 HD
ATOM     13  H   ASN B   1     133.498 131.739 169.536  0.00  0.00    +0.000 HD
TER 
REMARK  Name = /data/user_data/xianyang/t3-aimnet-affinity-balanced/L4/O94782/pocket.pdb
REMARK                            x       y       z     vdW  Elec       q    Type
REMARK                         _______ _______ _______ _____ _____    ______ ____
ATOM      1  N   LEU C   1     127.365 134.764 163.986  0.00  0.00    +0.000 N 
ATOM      2  CA  LEU C   1     126.377 135.015 165.030  0.00  0.00    +0.000 C 
ATOM      3  C   LEU C   1     126.390 136.473 165.471  0.00  0.00    +0.000 C 
ATOM      4  O   LEU C   1     125.329 137.073 165.681  0.00  0.00    +0.000 OA
ATOM      5  CB  LEU C   1     126.627 134.096 166.224  0.00  0.00    +0.000 C 
ATOM      6  CG  LEU C   1     126.272 132.621 166.045  0.00  0.00    +0.000 C 
ATOM      7  CD2 LEU C   1     126.785 131.810 167.221  0.00  0.00    +0.000 C 
ATOM      8  CD1 LEU C   1     124.773 132.447 165.884  0.00  0.00    +0.000 C 
ATOM      9  N   GLN C   2     127.580 137.058 165.631  0.00  0.00    +0.000 N 
ATOM     10  CA  GLN C   2     127.652 138.454 166.057  0.00  0.00    +0.000 C 
ATOM     11  C   GLN C   2     127.066 139.387 165.006  0.00  0.00    +0.000 C 
ATOM     12  O   GLN C   2     126.428 140.389 165.348  0.00  0.00    +0.000 OA
ATOM     13  CB  GLN C   2     129.094 138.842 166.380  0.00  0.00    +0.000 C 
ATOM     14  CG  GLN C   2     129.740 137.969 167.438  0.00  0.00    +0.000 C 
ATOM     15  CD  GLN C   2     131.242 138.146 167.512  0.00  0.00    +0.000 C 
ATOM     16  OE1 GLN C   2     131.736 139.064 168.160  0.00  0.00    +0.000 OA
ATOM     17  NE2 GLN C   2     131.977 137.270 166.841  0.00  0.00    +0.000 N 
ATOM     18  H   LEU C   1     127.188 135.383 163.195  0.00  0.00    +0.000 HD
ATOM     19  H   LEU C   1     127.297 133.793 163.680  0.00  0.00    +0.000 HD
ATOM     20  H   LEU C   1     128.300 134.940 164.353  0.00  0.00    +0.000 HD
ATOM     21  H   GLN C   2     128.406 136.550 165.462  0.00  0.00    +0.000 HD
ATOM     22  H   GLN C   2     131.541 136.548 166.333  0.00  0.00    +0.000 HD
ATOM     23  H   GLN C   2     132.959 137.342 166.850  0.00  0.00    +0.000 HD
TER 
REMARK  Name = /data/user_data/xianyang/t3-aimnet-affinity-balanced/L4/O94782/pocket.pdb
REMARK                            x       y       z     vdW  Elec       q    Type
REMARK                         _______ _______ _______ _____ _____    ______ ____
ATOM      1  N   TYR D   1     123.094 138.856 165.094  0.00  0.00    +0.000 N 
ATOM      2  CA  TYR D   1     122.405 139.359 166.279  0.00  0.00    +0.000 C 
ATOM      3  C   TYR D   1     121.977 140.812 166.113  0.00  0.00    +0.000 C 
ATOM      4  O   TYR D   1     120.949 141.221 166.664  0.00  0.00    +0.000 OA
ATOM      5  CB  TYR D   1     123.305 139.202 167.506  0.00  0.00    +0.000 C 
ATOM      6  CG  TYR D   1     122.683 139.650 168.810  0.00  0.00    +0.000 A 
ATOM      7  CD1 TYR D   1     122.774 140.969 169.232  0.00  0.00    +0.000 A 
ATOM      8  CD2 TYR D   1     122.019 138.749 169.627  0.00  0.00    +0.000 A 
ATOM      9  CE1 TYR D   1     122.213 141.380 170.423  0.00  0.00    +0.000 A 
ATOM     10  CE2 TYR D   1     121.454 139.151 170.822  0.00  0.00    +0.000 A 
ATOM     11  CZ  TYR D   1     121.555 140.467 171.215  0.00  0.00    +0.000 A 
ATOM     12  OH  TYR D   1     120.994 140.872 172.403  0.00  0.00    +0.000 OA
ATOM     13  N   PHE D   2     122.741 141.602 165.363  0.00  0.00    +0.000 N 
ATOM     14  CA  PHE D   2     122.436 143.012 165.156  0.00  0.00    +0.000 C 
ATOM     15  C   PHE D   2     121.600 143.265 163.909  0.00  0.00    +0.000 C 
ATOM     16  O   PHE D   2     121.326 144.427 163.593  0.00  0.00    +0.000 OA
ATOM     17  CB  PHE D   2     123.730 143.826 165.081  0.00  0.00    +0.000 C 
ATOM     18  CG  PHE D   2     124.296 144.183 166.424  0.00  0.00    +0.000 A 
ATOM     19  CD2 PHE D   2     123.757 145.220 167.163  0.00  0.00    +0.000 A 
ATOM     20  CD1 PHE D   2     125.363 143.478 166.949  0.00  0.00    +0.000 A 
ATOM     21  CE2 PHE D   2     124.275 145.548 168.400  0.00  0.00    +0.000 A 
ATOM     22  CE1 PHE D   2     125.885 143.802 168.185  0.00  0.00    +0.000 A 
ATOM     23  CZ  PHE D   2     125.341 144.838 168.911  0.00  0.00    +0.000 A 
ATOM     24  H   TYR D   1     122.490 138.963 164.279  0.00  0.00    +0.000 HD
ATOM     25  H   TYR D   1     123.318 137.870 165.224  0.00  0.00    +0.000 HD
ATOM     26  H   TYR D   1     123.955 139.384 164.951  0.00  0.00    +0.000 HD
ATOM     27  H   TYR D   1     121.062 141.767 172.672  0.00  0.00    +0.000 HD
ATOM     28  H   PHE D   2     123.540 141.221 164.933  0.00  0.00    +0.000 HD
TER 
REMARK  Name = /data/user_data/xianyang/t3-aimnet-affinity-balanced/L4/O94782/pocket.pdb
REMARK                            x       y       z     vdW  Elec       q    Type
REMARK                         _______ _______ _______ _____ _____    ______ ____
ATOM      1  N   LEU E   1     121.029 130.753 173.165  0.00  0.00    +0.000 N 
ATOM      2  CA  LEU E   1     122.200 131.620 173.057  0.00  0.00    +0.000 C 
ATOM      3  C   LEU E   1     121.813 133.091 173.136  0.00  0.00    +0.000 C 
ATOM      4  O   LEU E   1     122.532 133.895 173.741  0.00  0.00    +0.000 OA
ATOM      5  CB  LEU E   1     122.948 131.326 171.757  0.00  0.00    +0.000 C 
ATOM      6  CG  LEU E   1     124.045 132.304 171.334  0.00  0.00    +0.000 C 
ATOM      7  CD2 LEU E   1     125.273 131.542 170.877  0.00  0.00    +0.000 C 
ATOM      8  CD1 LEU E   1     123.554 133.228 170.230  0.00  0.00    +0.000 C 
ATOM      9  H   LEU E   1     121.322 129.778 173.109  0.00  0.00    +0.000 HD
ATOM     10  H   LEU E   1     120.382 130.958 172.403  0.00  0.00    +0.000 HD
ATOM     11  H   LEU E   1     120.565 130.918 174.058  0.00  0.00    +0.000 HD
TER 
REMARK  Name = /data/user_data/xianyang/t3-aimnet-affinity-balanced/L4/O94782/pocket.pdb
REMARK                            x       y       z     vdW  Elec       q    Type
REMARK                         _______ _______ _______ _____ _____    ______ ____
ATOM      1  N   VAL F   1     123.404 135.867 175.847  0.00  0.00    +0.000 N 
ATOM      2  CA  VAL F   1     124.134 137.060 175.424  0.00  0.00    +0.000 C 
ATOM      3  C   VAL F   1     123.476 138.314 175.980  0.00  0.00    +0.000 C 
ATOM      4  O   VAL F   1     124.155 139.225 176.469  0.00  0.00    +0.000 OA
ATOM      5  CB  VAL F   1     124.239 137.106 173.889  0.00  0.00    +0.000 C 
ATOM      6  CG2 VAL F   1     124.530 138.518 173.416  0.00  0.00    +0.000 C 
ATOM      7  CG1 VAL F   1     125.313 136.149 173.407  0.00  0.00    +0.000 C 
ATOM      8  H   VAL F   1     123.858 135.037 175.466  0.00  0.00    +0.000 HD
ATOM      9  H   VAL F   1     122.444 135.917 175.505  0.00  0.00    +0.000 HD
ATOM     10  H   VAL F   1     123.400 135.814 176.866  0.00  0.00    +0.000 HD
TER 
REMARK  Name = /data/user_data/xianyang/t3-aimnet-affinity-balanced/L4/O94782/pocket.pdb
REMARK                            x       y       z     vdW  Elec       q    Type
REMARK                         _______ _______ _______ _____ _____    ______ ____
ATOM      1  N   LEU G   1     124.562 139.455 179.432  0.00  0.00    +0.000 N 
ATOM      2  CA  LEU G   1     125.827 140.163 179.598  0.00  0.00    +0.000 C 
ATOM      3  C   LEU G   1     125.696 141.646 179.275  0.00  0.00    +0.000 C 
ATOM      4  O   LEU G   1     126.397 142.471 179.872  0.00  0.00    +0.000 OA
ATOM      5  CB  LEU G   1     126.904 139.523 178.721  0.00  0.00    +0.000 C 
ATOM      6  CG  LEU G   1     127.486 138.200 179.223  0.00  0.00    +0.000 C 
ATOM      7  CD1 LEU G   1     128.514 137.658 178.244  0.00  0.00    +0.000 C 
ATOM      8  CD2 LEU G   1     128.097 138.374 180.603  0.00  0.00    +0.000 C 
ATOM      9  N   GLN G   2     124.815 142.005 178.337  0.00  0.00    +0.000 N 
ATOM     10  CA  GLN G   2     124.660 143.407 177.965  0.00  0.00    +0.000 C 
ATOM     11  C   GLN G   2     124.154 144.250 179.127  0.00  0.00    +0.000 C 
ATOM     12  O   GLN G   2     124.448 145.448 179.196  0.00  0.00    +0.000 OA
ATOM     13  CB  GLN G   2     123.717 143.532 176.770  0.00  0.00    +0.000 C 
ATOM     14  CG  GLN G   2     124.426 143.746 175.448  0.00  0.00    +0.000 C 
ATOM     15  CD  GLN G   2     123.481 144.174 174.348  0.00  0.00    +0.000 C 
ATOM     16  OE1 GLN G   2     122.263 144.152 174.519  0.00  0.00    +0.000 OA
ATOM     17  NE2 GLN G   2     124.037 144.568 173.210  0.00  0.00    +0.000 N 
ATOM     18  H   LEU G   1     124.692 138.469 179.657  0.00  0.00    +0.000 HD
ATOM     19  H   LEU G   1     124.247 139.544 178.466  0.00  0.00    +0.000 HD
ATOM     20  H   LEU G   1     123.863 139.857 180.057  0.00  0.00    +0.000 HD
ATOM     21  H   GLN G   2     124.266 141.318 177.894  0.00  0.00    +0.000 HD
ATOM     22  H   GLN G   2     123.470 144.858 172.459  0.00  0.00    +0.000 HD
ATOM     23  H   GLN G   2     125.017 144.571 173.116  0.00  0.00    +0.000 HD
TER 
REMARK  Name = /data/user_data/xianyang/t3-aimnet-affinity-balanced/L4/O94782/pocket.pdb
REMARK                            x       y       z     vdW  Elec       q    Type
REMARK                         _______ _______ _______ _____ _____    ______ ____
ATOM      1  N   PHE H   1     127.389 145.311 181.236  0.00  0.00    +0.000 N 
ATOM      2  CA  PHE H   1     128.221 146.345 180.630  0.00  0.00    +0.000 C 
ATOM      3  C   PHE H   1     127.509 147.692 180.609  0.00  0.00    +0.000 C 
ATOM      4  O   PHE H   1     128.122 148.731 180.879  0.00  0.00    +0.000 OA
ATOM      5  CB  PHE H   1     128.625 145.930 179.215  0.00  0.00    +0.000 C 
ATOM      6  CG  PHE H   1     129.436 146.964 178.488  0.00  0.00    +0.000 A 
ATOM      7  CD2 PHE H   1     130.799 147.073 178.708  0.00  0.00    +0.000 A 
ATOM      8  CD1 PHE H   1     128.838 147.824 177.583  0.00  0.00    +0.000 A 
ATOM      9  CE2 PHE H   1     131.549 148.022 178.041  0.00  0.00    +0.000 A 
ATOM     10  CE1 PHE H   1     129.581 148.777 176.915  0.00  0.00    +0.000 A 
ATOM     11  CZ  PHE H   1     130.939 148.876 177.143  0.00  0.00    +0.000 A 
ATOM     12  N   LEU H   2     126.219 147.695 180.290  0.00  0.00    +0.000 N 
ATOM     13  CA  LEU H   2     125.449 148.931 180.216  0.00  0.00    +0.000 C 
ATOM     14  C   LEU H   2     125.098 149.444 181.607  0.00  0.00    +0.000 C 
ATOM     15  O   LEU H   2     124.364 150.421 181.750  0.00  0.00    +0.000 OA
ATOM     16  CB  LEU H   2     124.176 148.721 179.396  0.00  0.00    +0.000 C 
ATOM     17  CG  LEU H   2     124.203 149.175 177.935  0.00  0.00    +0.000 C 
ATOM     18  CD1 LEU H   2     125.394 148.583 177.202  0.00  0.00    +0.000 C 
ATOM     19  CD2 LEU H   2     122.907 148.793 177.240  0.00  0.00    +0.000 C 
ATOM     20  H   PHE H   1     127.893 144.424 181.234  0.00  0.00    +0.000 HD
ATOM     21  H   PHE H   1     126.526 145.212 180.701  0.00  0.00    +0.000 HD
ATOM     22  H   PHE H   1     127.166 145.574 182.196  0.00  0.00    +0.000 HD
ATOM     23  H   LEU H   2     125.771 146.839 180.098  0.00  0.00    +0.000 HD
TER 
REMARK  Name = /data/user_data/xianyang/t3-aimnet-affinity-balanced/L4/O94782/pocket.pdb
REMARK                            x       y       z     vdW  Elec       q    Type
REMARK                         _______ _______ _______ _____ _____    ______ ____
ATOM      1  N   THR I   1     130.052 132.047 177.184  0.00  0.00    +0.000 N 
ATOM      2  CA  THR I   1     128.853 132.081 176.352  0.00  0.00    +0.000 C 
ATOM      3  C   THR I   1     128.633 130.770 175.609  0.00  0.00    +0.000 C 
ATOM      4  O   THR I   1     127.489 130.454 175.262  0.00  0.00    +0.000 OA
ATOM      5  CB  THR I   1     128.932 133.239 175.355  0.00  0.00    +0.000 C 
ATOM      6  OG1 THR I   1     130.082 133.076 174.517  0.00  0.00    +0.000 OA
ATOM      7  CG2 THR I   1     129.034 134.565 176.091  0.00  0.00    +0.000 C 
ATOM      8  N   GLN I   2     129.699 130.003 175.366  0.00  0.00    +0.000 N 
ATOM      9  CA  GLN I   2     129.641 128.674 174.768  0.00  0.00    +0.000 C 
ATOM     10  C   GLN I   2     128.875 128.657 173.449  0.00  0.00    +0.000 C 
ATOM     11  O   GLN I   2     127.740 128.166 173.399  0.00  0.00    +0.000 OA
ATOM     12  CB  GLN I   2     129.009 127.678 175.743  0.00  0.00    +0.000 C 
ATOM     13  CG  GLN I   2     129.298 126.223 175.411  0.00  0.00    +0.000 C 
ATOM     14  CD  GLN I   2     128.253 125.281 175.972  0.00  0.00    +0.000 C 
ATOM     15  OE1 GLN I   2     127.257 125.715 176.550  0.00  0.00    +0.000 OA
ATOM     16  NE2 GLN I   2     128.473 123.984 175.800  0.00  0.00    +0.000 N 
ATOM     17  N   PRO I   3     129.449 129.182 172.365  0.00  0.00    +0.000 N 
ATOM     18  CA  PRO I   3     128.824 129.041 171.046  0.00  0.00    +0.000 C 
ATOM     19  C   PRO I   3     128.917 127.643 170.456  0.00  0.00    +0.000 C 
ATOM     20  O   PRO I   3     128.549 127.458 169.293  0.00  0.00    +0.000 OA
ATOM     21  CB  PRO I   3     129.614 130.042 170.191  0.00  0.00    +0.000 C 
ATOM     22  CG  PRO I   3     130.954 130.084 170.819  0.00  0.00    +0.000 C 
ATOM     23  CD  PRO I   3     130.751 129.867 172.294  0.00  0.00    +0.000 C 
ATOM     24  H   THR I   1     130.160 132.942 177.661  0.00  0.00    +0.000 HD
ATOM     25  H   THR I   1     130.868 131.874 176.597  0.00  0.00    +0.000 HD
ATOM     26  H   THR I   1     129.966 131.301 177.875  0.00  0.00    +0.000 HD
ATOM     27  H   THR I   1     130.883 133.078 175.064  0.00  0.00    +0.000 HD
ATOM     28  H   GLN I   2     130.585 130.359 175.607  0.00  0.00    +0.000 HD
ATOM     29  H   GLN I   2     129.284 123.680 175.331  0.00  0.00    +0.000 HD
ATOM     30  H   GLN I   2     127.826 123.325 176.141  0.00  0.00    +0.000 HD
TER 
REMARK  Name = /data/user_data/xianyang/t3-aimnet-affinity-balanced/L4/O94782/pocket.pdb
REMARK                            x       y       z     vdW  Elec       q    Type
REMARK                         _______ _______ _______ _____ _____    ______ ____
ATOM      1  N   VAL J   1     126.471 150.100 165.743  0.00  0.00    +0.000 N 
ATOM      2  CA  VAL J   1     125.429 150.124 166.763  0.00  0.00    +0.000 C 
ATOM      3  C   VAL J   1     124.141 150.628 166.128  0.00  0.00    +0.000 C 
ATOM      4  O   VAL J   1     124.122 151.683 165.482  0.00  0.00    +0.000 OA
ATOM      5  CB  VAL J   1     125.846 151.000 167.953  0.00  0.00    +0.000 C 
ATOM      6  CG2 VAL J   1     126.808 150.247 168.851  0.00  0.00    +0.000 C 
ATOM      7  CG1 VAL J   1     126.468 152.288 167.463  0.00  0.00    +0.000 C 
ATOM      8  H   VAL J   1     126.171 149.513 164.965  0.00  0.00    +0.000 HD
ATOM      9  H   VAL J   1     127.330 149.722 166.143  0.00  0.00    +0.000 HD
ATOM     10  H   VAL J   1     126.641 151.048 165.408  0.00  0.00    +0.000 HD
TER 
REMARK  Name = /data/user_data/xianyang/t3-aimnet-affinity-balanced/L4/O94782/pocket.pdb
REMARK                            x       y       z     vdW  Elec       q    Type
REMARK                         _______ _______ _______ _____ _____    ______ ____
ATOM      1  N   LEU K   1     124.439 152.611 176.526  0.00  0.00    +0.000 N 
ATOM      2  CA  LEU K   1     123.847 152.895 175.224  0.00  0.00    +0.000 C 
ATOM      3  C   LEU K   1     123.676 154.394 175.014  0.00  0.00    +0.000 C 
ATOM      4  O   LEU K   1     123.446 154.848 173.896  0.00  0.00    +0.000 OA
ATOM      5  CB  LEU K   1     122.497 152.179 175.080  0.00  0.00    +0.000 C 
ATOM      6  CG  LEU K   1     121.365 152.497 176.067  0.00  0.00    +0.000 C 
ATOM      7  CD1 LEU K   1     120.542 153.710 175.644  0.00  0.00    +0.000 C 
ATOM      8  CD2 LEU K   1     120.463 151.288 176.254  0.00  0.00    +0.000 C 
ATOM      9  H   LEU K   1     125.334 153.094 176.605  0.00  0.00    +0.000 HD
ATOM     10  H   LEU K   1     124.585 151.606 176.621  0.00  0.00    +0.000 HD
ATOM     11  H   LEU K   1     123.812 152.935 177.263  0.00  0.00    +0.000 HD
TER 
REMARK  Name = /data/user_data/xianyang/t3-aimnet-affinity-balanced/L4/O94782/pocket.pdb
REMARK                            x       y       z     vdW  Elec       q    Type
REMARK                         _______ _______ _______ _____ _____    ______ ____
ATOM      1  N   TYR L   1     127.001 155.494 173.048  0.00  0.00    +0.000 N 
ATOM      2  CA  TYR L   1     127.635 154.618 172.072  0.00  0.00    +0.000 C 
ATOM      3  C   TYR L   1     127.008 154.709 170.688  0.00  0.00    +0.000 C 
ATOM      4  O   TYR L   1     127.576 154.158 169.739  0.00  0.00    +0.000 OA
ATOM      5  CB  TYR L   1     127.586 153.168 172.557  0.00  0.00    +0.000 C 
ATOM      6  CG  TYR L   1     128.580 152.859 173.650  0.00  0.00    +0.000 A 
ATOM      7  CD2 TYR L   1     128.298 153.155 174.976  0.00  0.00    +0.000 A 
ATOM      8  CD1 TYR L   1     129.803 152.275 173.356  0.00  0.00    +0.000 A 
ATOM      9  CE2 TYR L   1     129.205 152.876 175.978  0.00  0.00    +0.000 A 
ATOM     10  CE1 TYR L   1     130.716 151.993 174.351  0.00  0.00    +0.000 A 
ATOM     11  CZ  TYR L   1     130.413 152.295 175.659  0.00  0.00    +0.000 A 
ATOM     12  OH  TYR L   1     131.322 152.013 176.653  0.00  0.00    +0.000 OA
ATOM     13  H   TYR L   1     127.039 156.457 172.715  0.00  0.00    +0.000 HD
ATOM     14  H   TYR L   1     127.492 155.422 173.939  0.00  0.00    +0.000 HD
ATOM     15  H   TYR L   1     126.028 155.216 173.173  0.00  0.00    +0.000 HD
ATOM     16  H   TYR L   1     132.144 151.618 176.438  0.00  0.00    +0.000 HD
TER 
REMARK  Name = /data/user_data/xianyang/t3-aimnet-affinity-balanced/L4/O94782/pocket.pdb
REMARK                            x       y       z     vdW  Elec       q    Type
REMARK                         _______ _______ _______ _____ _____    ______ ____
ATOM      1  N   LEU M   1     131.701 149.167 166.339  0.00  0.00    +0.000 N 
ATOM      2  CA  LEU M   1     132.370 148.247 167.242  0.00  0.00    +0.000 C 
ATOM      3  C   LEU M   1     133.467 147.500 166.489  0.00  0.00    +0.000 C 
ATOM      4  O   LEU M   1     133.631 147.638 165.275  0.00  0.00    +0.000 OA
ATOM      5  CB  LEU M   1     131.364 147.276 167.863  0.00  0.00    +0.000 C 
ATOM      6  CG  LEU M   1     130.278 147.900 168.738  0.00  0.00    +0.000 C 
ATOM      7  CD1 LEU M   1     129.519 146.824 169.490  0.00  0.00    +0.000 C 
ATOM      8  CD2 LEU M   1     130.875 148.907 169.700  0.00  0.00    +0.000 C 
ATOM      9  H   LEU M   1     132.386 149.806 165.935  0.00  0.00    +0.000 HD
ATOM     10  H   LEU M   1     131.001 149.701 166.854  0.00  0.00    +0.000 HD
ATOM     11  H   LEU M   1     131.246 148.641 165.593  0.00  0.00    +0.000 HD
TER 
REMARK  Name = /data/user_data/xianyang/t3-aimnet-affinity-balanced/L4/O94782/pocket.pdb
REMARK                            x       y       z     vdW  Elec       q    Type
REMARK                         _______ _______ _______ _____ _____    ______ ____
ATOM      1  N   PHE N   1     134.941 143.538 167.012  0.00  0.00    +0.000 N 
ATOM      2  CA  PHE N   1     134.938 142.289 167.773  0.00  0.00    +0.000 C 
ATOM      3  C   PHE N   1     136.237 141.544 167.497  0.00  0.00    +0.000 C 
ATOM      4  O   PHE N   1     136.327 140.721 166.586  0.00  0.00    +0.000 OA
ATOM      5  CB  PHE N   1     133.724 141.445 167.411  0.00  0.00    +0.000 C 
ATOM      6  CG  PHE N   1     132.453 141.895 168.069  0.00  0.00    +0.000 A 
ATOM      7  CD2 PHE N   1     132.392 142.078 169.438  0.00  0.00    +0.000 A 
ATOM      8  CD1 PHE N   1     131.314 142.122 167.318  0.00  0.00    +0.000 A 
ATOM      9  CE2 PHE N   1     131.221 142.487 170.041  0.00  0.00    +0.000 A 
ATOM     10  CE1 PHE N   1     130.143 142.530 167.918  0.00  0.00    +0.000 A 
ATOM     11  CZ  PHE N   1     130.097 142.714 169.280  0.00  0.00    +0.000 A 
ATOM     12  H   PHE N   1     134.075 144.046 167.189  0.00  0.00    +0.000 HD
ATOM     13  H   PHE N   1     135.015 143.329 166.016  0.00  0.00    +0.000 HD
ATOM     14  H   PHE N   1     135.735 144.110 167.300  0.00  0.00    +0.000 HD
TER 
REMARK  Name = /data/user_data/xianyang/t3-aimnet-affinity-balanced/L4/O94782/pocket.pdb
REMARK                            x       y       z     vdW  Elec       q    Type
REMARK                         _______ _______ _______ _____ _____    ______ ____
ATOM      1  N   ASP O   1     139.559 139.146 169.160  0.00  0.00    +0.000 N 
ATOM      2  CA  ASP O   1     139.589 137.857 169.847  0.00  0.00    +0.000 C 
ATOM      3  C   ASP O   1     139.400 138.091 171.341  0.00  0.00    +0.000 C 
ATOM      4  O   ASP O   1     140.328 138.505 172.040  0.00  0.00    +0.000 OA
ATOM      5  CB  ASP O   1     140.895 137.126 169.561  0.00  0.00    +0.000 C 
ATOM      6  CG  ASP O   1     140.881 135.696 170.060  0.00  0.00    +0.000 C 
ATOM      7  OD1 ASP O   1     139.931 134.958 169.725  0.00  0.00    +0.000 OA
ATOM      8  OD2 ASP O   1     141.820 135.309 170.788  0.00  0.00    +0.000 OA
ATOM      9  N   SER O   2     138.189 137.817 171.831  0.00  0.00    +0.000 N 
ATOM     10  CA  SER O   2     137.848 137.933 173.252  0.00  0.00    +0.000 C 
ATOM     11  C   SER O   2     138.149 139.329 173.795  0.00  0.00    +0.000 C 
ATOM     12  O   SER O   2     138.638 139.487 174.915  0.00  0.00    +0.000 OA
ATOM     13  CB  SER O   2     138.559 136.863 174.085  0.00  0.00    +0.000 C 
ATOM     14  OG  SER O   2     139.967 137.009 174.028  0.00  0.00    +0.000 OA
ATOM     15  N   GLU O   3     137.853 140.352 172.996  0.00  0.00    +0.000 N 
ATOM     16  CA  GLU O   3     138.006 141.733 173.437  0.00  0.00    +0.000 C 
ATOM     17  C   GLU O   3     137.106 142.614 172.586  0.00  0.00    +0.000 C 
ATOM     18  O   GLU O   3     137.109 142.498 171.357  0.00  0.00    +0.000 OA
ATOM     19  CB  GLU O   3     139.462 142.198 173.335  0.00  0.00    +0.000 C 
ATOM     20  CG  GLU O   3     139.741 143.496 174.075  0.00  0.00    +0.000 C 
ATOM     21  CD  GLU O   3     140.709 144.397 173.335  0.00  0.00    +0.000 C 
ATOM     22  OE1 GLU O   3     141.187 143.998 172.252  0.00  0.00    +0.000 OA
ATOM     23  OE2 GLU O   3     140.992 145.506 173.837  0.00  0.00    +0.000 OA
ATOM     24  N   VAL O   4     136.348 143.489 173.238  0.00  0.00    +0.000 N 
ATOM     25  CA  VAL O   4     135.397 144.368 172.568  0.00  0.00    +0.000 C 
ATOM     26  C   VAL O   4     135.947 145.787 172.615  0.00  0.00    +0.000 C 
ATOM     27  O   VAL O   4     136.181 146.338 173.697  0.00  0.00    +0.000 OA
ATOM     28  CB  VAL O   4     134.003 144.283 173.208  0.00  0.00    +0.000 C 
ATOM     29  CG1 VAL O   4     133.297 143.034 172.733  0.00  0.00    +0.000 C 
ATOM     30  CG2 VAL O   4     134.110 144.272 174.725  0.00  0.00    +0.000 C 
ATOM     31  H   ASP O   1     139.685 139.000 168.158  0.00  0.00    +0.000 HD
ATOM     32  H   ASP O   1     140.310 139.738 169.515  0.00  0.00    +0.000 HD
ATOM     33  H   ASP O   1     138.661 139.600 169.328  0.00  0.00    +0.000 HD
ATOM     34  H   SER O   2     137.488 137.522 171.206  0.00  0.00    +0.000 HD
ATOM     35  H   SER O   2     140.265 136.912 173.110  0.00  0.00    +0.000 HD
ATOM     36  H   GLU O   3     137.523 140.172 172.086  0.00  0.00    +0.000 HD
ATOM     37  H   VAL O   4     136.432 143.546 174.217  0.00  0.00    +0.000 HD
TER 
REMARK  Name = /data/user_data/xianyang/t3-aimnet-affinity-balanced/L4/O94782/pocket.pdb
REMARK                            x       y       z     vdW  Elec       q    Type
REMARK                         _______ _______ _______ _____ _____    ______ ____
ATOM      1  N   VAL P   1     135.646 149.834 170.985  0.00  0.00    +0.000 N 
ATOM      2  CA  VAL P   1     134.723 150.795 170.391  0.00  0.00    +0.000 C 
ATOM      3  C   VAL P   1     135.540 151.838 169.643  0.00  0.00    +0.000 C 
ATOM      4  O   VAL P   1     136.367 152.537 170.242  0.00  0.00    +0.000 OA
ATOM      5  CB  VAL P   1     133.831 151.452 171.453  0.00  0.00    +0.000 C 
ATOM      6  CG1 VAL P   1     132.877 152.441 170.806  0.00  0.00    +0.000 C 
ATOM      7  CG2 VAL P   1     133.067 150.394 172.231  0.00  0.00    +0.000 C 
ATOM      8  H   VAL P   1     136.221 149.418 170.253  0.00  0.00    +0.000 HD
ATOM      9  H   VAL P   1     135.117 149.102 171.458  0.00  0.00    +0.000 HD
ATOM     10  H   VAL P   1     136.245 150.310 171.659  0.00  0.00    +0.000 HD
TER 
