REMARK  Name = /home/xianyang/aimnet2_score_pipelines/work/L1234-fixed-receptor-eint-20260921/L2/O14757/prepared.pdb
REMARK                            x       y       z     vdW  Elec       q    Type
REMARK                         _______ _______ _______ _____ _____    ______ ____
ATOM      1  CH3 ACE A   1      18.910  -7.367   0.903  0.00  0.00    +0.000 C 
ATOM      2  C   ACE A   1      18.150  -7.512   2.212  0.00  0.00    +0.000 C 
ATOM      3  O   ACE A   1      17.220  -6.763   2.483  0.00  0.00    +0.000 OA
ATOM      4  N   THR A   2      18.559  -8.483   3.018  0.00  0.00    +0.000 N 
ATOM      5  H   THR A   2      19.308  -9.096   2.739  0.00  0.00    +0.000 HD
ATOM      6  CA  THR A   2      17.929  -8.700   4.303  0.00  0.00    +0.000 C 
ATOM      7  C   THR A   2      18.723  -7.893   5.320  0.00  0.00    +0.000 C 
ATOM      8  O   THR A   2      19.881  -8.181   5.590  0.00  0.00    +0.000 OA
ATOM      9  CB  THR A   2      17.935 -10.189   4.693  0.00  0.00    +0.000 C 
ATOM     10  OG1 THR A   2      17.155 -10.931   3.750  0.00  0.00    +0.000 OA
ATOM     11  HG1 THR A   2      16.432 -11.342   4.252  0.00  0.00    +0.000 HD
ATOM     12  CG2 THR A   2      17.342 -10.379   6.069  0.00  0.00    +0.000 C 
ATOM     13  N   LEU A   3      18.082  -6.859   5.845  0.00  0.00    +0.000 N 
ATOM     14  H   LEU A   3      17.086  -6.798   5.678  0.00  0.00    +0.000 HD
ATOM     15  CA  LEU A   3      18.653  -5.958   6.842  0.00  0.00    +0.000 C 
ATOM     16  C   LEU A   3      18.912  -6.550   8.232  0.00  0.00    +0.000 C 
ATOM     17  O   LEU A   3      19.889  -6.218   8.893  0.00  0.00    +0.000 OA
ATOM     18  CB  LEU A   3      17.789  -4.701   6.952  0.00  0.00    +0.000 C 
ATOM     19  CG  LEU A   3      17.718  -3.880   5.668  0.00  0.00    +0.000 C 
ATOM     20  CD1 LEU A   3      16.671  -2.786   5.771  0.00  0.00    +0.000 C 
ATOM     21  CD2 LEU A   3      19.083  -3.303   5.340  0.00  0.00    +0.000 C 
ATOM     22  N   GLY A   4      18.001  -7.405   8.670  0.00  0.00    +0.000 N 
ATOM     23  H   GLY A   4      17.236  -7.692   8.066  0.00  0.00    +0.000 HD
ATOM     24  CA  GLY A   4      18.050  -8.004   9.990  0.00  0.00    +0.000 C 
ATOM     25  C   GLY A   4      16.966  -9.032  10.204  0.00  0.00    +0.000 C 
ATOM     26  O   GLY A   4      16.108  -9.248   9.342  0.00  0.00    +0.000 OA
ATOM     27  N   GLU A   5      17.016  -9.670  11.365  0.00  0.00    +0.000 NA
ATOM     28  H   GLU A   5      17.699  -9.389  12.051  0.00  0.00    +0.000 HD
ATOM     29  CA  GLU A   5      16.066 -10.697  11.753  0.00  0.00    +0.000 C 
ATOM     30  C   GLU A   5      15.348 -10.293  13.021  0.00  0.00    +0.000 C 
ATOM     31  O   GLU A   5      15.928  -9.647  13.899  0.00  0.00    +0.000 OA
ATOM     32  CB  GLU A   5      16.768 -12.055  11.939  0.00  0.00    +0.000 C 
ATOM     33  CG  GLU A   5      16.655 -11.443  10.511  0.00  0.00    +0.000 C 
ATOM     34  CD  GLU A   5      16.470 -11.749   8.992  0.00  0.00    +0.000 C 
ATOM     35  OE1 GLU A   5      16.058 -10.654   8.539  0.00  0.00    +0.000 OA
ATOM     36  OE2 GLU A   5      16.619 -12.722   8.175  0.00  0.00    +0.000 OA
ATOM     37  N   GLY A   6      14.076 -10.652  13.065  0.00  0.00    +0.000 N 
ATOM     38  H   GLY A   6      13.700 -11.199  12.292  0.00  0.00    +0.000 HD
ATOM     39  CA  GLY A   6      13.183 -10.467  14.199  0.00  0.00    +0.000 C 
ATOM     40  C   GLY A   6      12.594 -11.814  14.558  0.00  0.00    +0.000 C 
ATOM     41  O   GLY A   6      12.848 -12.808  13.863  0.00  0.00    +0.000 OA
ATOM     42  N   ALA A   7      11.815 -11.869  15.640  0.00  0.00    +0.000 N 
ATOM     43  H   ALA A   7      11.721 -11.043  16.208  0.00  0.00    +0.000 HD
ATOM     44  CA  ALA A   7      11.175 -13.107  16.090  0.00  0.00    +0.000 C 
ATOM     45  C   ALA A   7      10.108 -13.574  15.089  0.00  0.00    +0.000 C 
ATOM     46  O   ALA A   7      10.067 -14.759  14.745  0.00  0.00    +0.000 OA
ATOM     47  CB  ALA A   7      10.551 -12.899  17.462  0.00  0.00    +0.000 C 
ATOM     48  N   TYR A   8       9.274 -12.627  14.607  0.00  0.00    +0.000 N 
ATOM     49  H   TYR A   8       9.467 -11.681  14.867  0.00  0.00    +0.000 HD
ATOM     50  CA  TYR A   8       8.168 -12.852  13.672  0.00  0.00    +0.000 C 
ATOM     51  C   TYR A   8       8.621 -13.178  12.250  0.00  0.00    +0.000 C 
ATOM     52  O   TYR A   8       7.973 -13.973  11.563  0.00  0.00    +0.000 OA
ATOM     53  CB  TYR A   8       7.240 -11.630  13.659  0.00  0.00    +0.000 C 
ATOM     54  CG  TYR A   8       7.026 -11.992  15.186  0.00  0.00    +0.000 A 
ATOM     55  CD1 TYR A   8       7.986 -11.777  16.225  0.00  0.00    +0.000 A 
ATOM     56  CE1 TYR A   8       7.800 -12.145  17.611  0.00  0.00    +0.000 A 
ATOM     57  CZ  TYR A   8       6.642 -12.769  18.146  0.00  0.00    +0.000 A 
ATOM     58  OH  TYR A   8       6.364 -13.169  19.436  0.00  0.00    +0.000 OA
ATOM     59  HH  TYR A   8       7.074 -12.970  20.046  0.00  0.00    +0.000 HD
ATOM     60  CE2 TYR A   8       5.728 -12.957  17.100  0.00  0.00    +0.000 A 
ATOM     61  CD2 TYR A   8       5.866 -12.608  15.722  0.00  0.00    +0.000 A 
ATOM     62  N   GLY A   9       9.700 -12.539  11.817  0.00  0.00    +0.000 N 
ATOM     63  H   GLY A   9      10.227 -11.969  12.457  0.00  0.00    +0.000 HD
ATOM     64  CA  GLY A   9      10.261 -12.722  10.486  0.00  0.00    +0.000 C 
ATOM     65  C   GLY A   9      11.460 -11.840  10.225  0.00  0.00    +0.000 C 
ATOM     66  O   GLY A   9      12.266 -11.585  11.127  0.00  0.00    +0.000 OA
ATOM     67  N   GLU A  10      11.577 -11.362   8.989  0.00  0.00    +0.000 N 
ATOM     68  H   GLU A  10      10.855 -11.549   8.308  0.00  0.00    +0.000 HD
ATOM     69  CA  GLU A  10      12.696 -10.530   8.568  0.00  0.00    +0.000 C 
ATOM     70  C   GLU A  10      12.343  -9.060   8.301  0.00  0.00    +0.000 C 
ATOM     71  O   GLU A  10      11.176  -8.683   8.159  0.00  0.00    +0.000 OA
ATOM     72  CB  GLU A  10      13.379 -11.155   7.335  0.00  0.00    +0.000 C 
ATOM     73  CG  GLU A  10      12.093 -11.215   6.422  0.00  0.00    +0.000 C 
ATOM     74  CD  GLU A  10      11.808 -11.538   4.911  0.00  0.00    +0.000 C 
ATOM     75  OE1 GLU A  10      10.606 -11.249   4.762  0.00  0.00    +0.000 OA
ATOM     76  OE2 GLU A  10      12.465 -11.982   3.895  0.00  0.00    +0.000 OA
ATOM     77  N   VAL A  11      13.383  -8.239   8.268  0.00  0.00    +0.000 N 
ATOM     78  H   VAL A  11      14.308  -8.664   8.389  0.00  0.00    +0.000 HD
ATOM     79  CA  VAL A  11      13.334  -6.831   7.905  0.00  0.00    +0.000 C 
ATOM     80  C   VAL A  11      14.191  -6.793   6.640  0.00  0.00    +0.000 C 
ATOM     81  O   VAL A  11      15.364  -7.185   6.675  0.00  0.00    +0.000 OA
ATOM     82  CB  VAL A  11      13.845  -5.860   8.999  0.00  0.00    +0.000 C 
ATOM     83  CG1 VAL A  11      13.760  -4.416   8.517  0.00  0.00    +0.000 C 
ATOM     84  CG2 VAL A  11      13.064  -6.027  10.299  0.00  0.00    +0.000 C 
ATOM     85  N   GLN A  12      13.580  -6.409   5.516  0.00  0.00    +0.000 N 
ATOM     86  H   GLN A  12      12.609  -6.120   5.573  0.00  0.00    +0.000 HD
ATOM     87  CA  GLN A  12      14.257  -6.374   4.231  0.00  0.00    +0.000 C 
ATOM     88  C   GLN A  12      14.325  -4.956   3.699  0.00  0.00    +0.000 C 
ATOM     89  O   GLN A  12      13.401  -4.172   3.917  0.00  0.00    +0.000 OA
ATOM     90  CB  GLN A  12      13.508  -7.260   3.208  0.00  0.00    +0.000 C 
ATOM     91  CG  GLN A  12      13.605  -8.759   3.473  0.00  0.00    +0.000 C 
ATOM     92  CD  GLN A  12      12.248  -9.045   2.854  0.00  0.00    +0.000 C 
ATOM     93  OE1 GLN A  12      11.735 -10.108   2.437  0.00  0.00    +0.000 OA
ATOM     94  NE2 GLN A  12      11.665  -7.852   2.876  0.00  0.00    +0.000 N 
ATOM     95 HE21 GLN A  12      10.768  -7.897   2.420  0.00  0.00    +0.000 HD
ATOM     96 HE22 GLN A  12      11.766  -7.286   3.697  0.00  0.00    +0.000 HD
ATOM     97  N   NME A  13      15.407  -4.635   2.984  0.00  0.00    +0.000 N 
ATOM     98  H   NME A  13      16.109  -5.353   2.819  0.00  0.00    +0.000 HD
ATOM     99  C   NME A  13      15.559  -3.347   2.320  0.00  0.00    +0.000 C 
TER 
REMARK  Name = /home/xianyang/aimnet2_score_pipelines/work/L1234-fixed-receptor-eint-20260921/L2/O14757/prepared.pdb
REMARK                            x       y       z     vdW  Elec       q    Type
REMARK                         _______ _______ _______ _____ _____    ______ ____
ATOM      1  CH3 ACE B   1      14.476   3.056   0.147  0.00  0.00    +0.000 C 
ATOM      2  C   ACE B   1      13.485   3.025   1.313  0.00  0.00    +0.000 C 
ATOM      3  O   ACE B   1      13.127   4.067   1.862  0.00  0.00    +0.000 OA
ATOM      4  N   VAL B   2      13.008   1.824   1.649  0.00  0.00    +0.000 N 
ATOM      5  H   VAL B   2      13.354   1.013   1.156  0.00  0.00    +0.000 HD
ATOM      6  CA  VAL B   2      12.105   1.558   2.769  0.00  0.00    +0.000 C 
ATOM      7  C   VAL B   2      12.552   0.247   3.411  0.00  0.00    +0.000 C 
ATOM      8  O   VAL B   2      13.039  -0.652   2.705  0.00  0.00    +0.000 OA
ATOM      9  CB  VAL B   2      10.587   1.486   2.388  0.00  0.00    +0.000 C 
ATOM     10  CG1 VAL B   2      10.056   2.810   1.855  0.00  0.00    +0.000 C 
ATOM     11  CG2 VAL B   2      10.289   0.352   1.426  0.00  0.00    +0.000 C 
ATOM     12  N   ALA B   3      12.363   0.127   4.730  0.00  0.00    +0.000 N 
ATOM     13  H   ALA B   3      11.894   0.871   5.237  0.00  0.00    +0.000 HD
ATOM     14  CA  ALA B   3      12.627  -1.113   5.438  0.00  0.00    +0.000 C 
ATOM     15  C   ALA B   3      11.253  -1.804   5.561  0.00  0.00    +0.000 C 
ATOM     16  O   ALA B   3      10.301  -1.215   6.089  0.00  0.00    +0.000 OA
ATOM     17  CB  ALA B   3      13.215  -0.832   6.813  0.00  0.00    +0.000 C 
ATOM     18  N   VAL B   4      11.139  -3.014   5.006  0.00  0.00    +0.000 N 
ATOM     19  H   VAL B   4      11.949  -3.413   4.544  0.00  0.00    +0.000 HD
ATOM     20  CA  VAL B   4       9.905  -3.790   5.025  0.00  0.00    +0.000 C 
ATOM     21  C   VAL B   4       9.978  -4.819   6.139  0.00  0.00    +0.000 C 
ATOM     22  O   VAL B   4      10.847  -5.693   6.118  0.00  0.00    +0.000 OA
ATOM     23  CB  VAL B   4       9.580  -4.441   3.644  0.00  0.00    +0.000 C 
ATOM     24  CG1 VAL B   4       8.298  -5.259   3.710  0.00  0.00    +0.000 C 
ATOM     25  CG2 VAL B   4       9.477  -3.383   2.550  0.00  0.00    +0.000 C 
ATOM     26  N   LYS B   5       9.077  -4.704   7.115  0.00  0.00    +0.000 N 
ATOM     27  H   LYS B   5       8.374  -3.973   7.037  0.00  0.00    +0.000 HD
ATOM     28  CA  LYS B   5       8.995  -5.644   8.236  0.00  0.00    +0.000 C 
ATOM     29  C   LYS B   5       7.971  -6.709   7.842  0.00  0.00    +0.000 C 
ATOM     30  O   LYS B   5       6.832  -6.368   7.508  0.00  0.00    +0.000 OA
ATOM     31  CB  LYS B   5       8.587  -4.931   9.534  0.00  0.00    +0.000 C 
ATOM     32  CG  LYS B   5       8.602  -5.851  10.751  0.00  0.00    +0.000 C 
ATOM     33  CD  LYS B   5       8.326  -5.080  12.019  0.00  0.00    +0.000 C 
ATOM     34  CE  LYS B   5       8.532  -5.944  13.221  0.00  0.00    +0.000 C 
ATOM     35  NZ  LYS B   5       8.454  -5.157  14.468  0.00  0.00    +0.000 N 
ATOM     36  HZ1 LYS B   5       8.260  -5.728  15.279  0.00  0.00    +0.000 HD
ATOM     37  HZ2 LYS B   5       7.684  -4.477  14.433  0.00  0.00    +0.000 HD
ATOM     38  HZ3 LYS B   5       9.320  -4.677  14.706  0.00  0.00    +0.000 HD
ATOM     39  N   ILE B   6       8.398  -7.979   7.830  0.00  0.00    +0.000 N 
ATOM     40  H   ILE B   6       9.373  -8.176   8.044  0.00  0.00    +0.000 HD
ATOM     41  CA  ILE B   6       7.562  -9.118   7.424  0.00  0.00    +0.000 C 
ATOM     42  C   ILE B   6       7.199  -9.947   8.656  0.00  0.00    +0.000 C 
ATOM     43  O   ILE B   6       8.079 -10.351   9.424  0.00  0.00    +0.000 OA
ATOM     44  CB  ILE B   6       8.203  -9.936   6.262  0.00  0.00    +0.000 C 
ATOM     45  CG1 ILE B   6       8.726  -9.001   5.139  0.00  0.00    +0.000 C 
ATOM     46  CG2 ILE B   6       7.202 -10.956   5.687  0.00  0.00    +0.000 C 
ATOM     47  CD1 ILE B   6       9.779  -9.615   4.181  0.00  0.00    +0.000 C 
ATOM     48  N   NME B   7       5.886 -10.111   8.889  0.00  0.00    +0.000 N 
ATOM     49  H   NME B   7       5.244  -9.713   8.221  0.00  0.00    +0.000 HD
ATOM     50  C   NME B   7       5.326 -10.811  10.049  0.00  0.00    +0.000 C 
TER 
REMARK  Name = /home/xianyang/aimnet2_score_pipelines/work/L1234-fixed-receptor-eint-20260921/L2/O14757/prepared.pdb
REMARK                            x       y       z     vdW  Elec       q    Type
REMARK                         _______ _______ _______ _____ _____    ______ ____
ATOM      1  CH3 ACE C   1      -2.723  -5.121  14.647  0.00  0.00    +0.000 C 
ATOM      2  C   ACE C   1      -2.432  -3.870  15.504  0.00  0.00    +0.000 C 
ATOM      3  O   ACE C   1      -2.644  -2.746  15.049  0.00  0.00    +0.000 OA
ATOM      4  N   LYS C   2      -1.928  -4.084  16.729  0.00  0.00    +0.000 N 
ATOM      5  H   LYS C   2      -1.813  -5.044  17.013  0.00  0.00    +0.000 HD
ATOM      6  CA  LYS C   2      -1.593  -3.041  17.685  0.00  0.00    +0.000 C 
ATOM      7  C   LYS C   2      -0.358  -2.258  17.237  0.00  0.00    +0.000 C 
ATOM      8  O   LYS C   2      -0.374  -1.027  17.316  0.00  0.00    +0.000 OA
ATOM      9  CB  LYS C   2      -1.394  -3.655  19.065  0.00  0.00    +0.000 C 
ATOM     10  CG  LYS C   2      -1.196  -2.652  20.183  0.00  0.00    +0.000 C 
ATOM     11  CD  LYS C   2      -0.933  -3.416  21.455  0.00  0.00    +0.000 C 
ATOM     12  CE  LYS C   2      -1.398  -2.678  22.669  0.00  0.00    +0.000 C 
ATOM     13  NZ  LYS C   2      -1.134  -3.454  23.897  0.00  0.00    +0.000 N 
ATOM     14  HZ1 LYS C   2      -1.602  -4.352  23.862  0.00  0.00    +0.000 HD
ATOM     15  HZ2 LYS C   2      -1.465  -2.949  24.710  0.00  0.00    +0.000 HD
ATOM     16  HZ3 LYS C   2      -0.141  -3.616  24.005  0.00  0.00    +0.000 HD
ATOM     17  N   GLU C   3       0.690  -2.963  16.733  0.00  0.00    +0.000 N 
ATOM     18  H   GLU C   3       0.644  -3.967  16.730  0.00  0.00    +0.000 HD
ATOM     19  CA  GLU C   3       1.906  -2.323  16.219  0.00  0.00    +0.000 C 
ATOM     20  C   GLU C   3       1.534  -1.371  15.075  0.00  0.00    +0.000 C 
ATOM     21  O   GLU C   3       2.053  -0.266  15.010  0.00  0.00    +0.000 OA
ATOM     22  CB  GLU C   3       2.919  -3.371  15.726  0.00  0.00    +0.000 C 
ATOM     23  CG  GLU C   3       4.202  -2.759  15.165  0.00  0.00    +0.000 C 
ATOM     24  CD  GLU C   3       5.327  -3.745  14.926  0.00  0.00    +0.000 C 
ATOM     25  OE1 GLU C   3       5.172  -4.920  15.320  0.00  0.00    +0.000 OA
ATOM     26  OE2 GLU C   3       6.374  -3.338  14.374  0.00  0.00    +0.000 OA
ATOM     27  N   ILE C   4       0.618  -1.806  14.193  0.00  0.00    +0.000 N 
ATOM     28  H   ILE C   4       0.212  -2.714  14.336  0.00  0.00    +0.000 HD
ATOM     29  CA  ILE C   4       0.148  -0.990  13.070  0.00  0.00    +0.000 C 
ATOM     30  C   ILE C   4      -0.601   0.242  13.599  0.00  0.00    +0.000 C 
ATOM     31  O   ILE C   4      -0.297   1.360  13.190  0.00  0.00    +0.000 OA
ATOM     32  CB  ILE C   4      -0.691  -1.838  12.054  0.00  0.00    +0.000 C 
ATOM     33  CG1 ILE C   4       0.221  -2.850  11.314  0.00  0.00    +0.000 C 
ATOM     34  CG2 ILE C   4      -1.462  -0.933  11.061  0.00  0.00    +0.000 C 
ATOM     35  CD1 ILE C   4      -0.514  -4.029  10.569  0.00  0.00    +0.000 C 
ATOM     36  N   NME C   5      -1.562   0.023  14.497  0.00  0.00    +0.000 N 
ATOM     37  H   NME C   5      -1.731  -0.935  14.776  0.00  0.00    +0.000 HD
ATOM     38  C   NME C   5      -2.384   1.059  15.123  0.00  0.00    +0.000 C 
TER 
REMARK  Name = /home/xianyang/aimnet2_score_pipelines/work/L1234-fixed-receptor-eint-20260921/L2/O14757/prepared.pdb
REMARK                            x       y       z     vdW  Elec       q    Type
REMARK                         _______ _______ _______ _____ _____    ______ ____
ATOM      1  CH3 ACE D   1      13.305  10.882  16.488  0.00  0.00    +0.000 C 
ATOM      2  C   ACE D   1      12.539   9.573  16.652  0.00  0.00    +0.000 C 
ATOM      3  O   ACE D   1      12.831   8.776  17.536  0.00  0.00    +0.000 OA
ATOM      4  N   VAL D   2      11.574   9.341  15.767  0.00  0.00    +0.000 N 
ATOM      5  H   VAL D   2      11.424   9.997  15.014  0.00  0.00    +0.000 HD
ATOM      6  CA  VAL D   2      10.787   8.105  15.746  0.00  0.00    +0.000 C 
ATOM      7  C   VAL D   2      10.767   7.650  14.281  0.00  0.00    +0.000 C 
ATOM      8  O   VAL D   2      10.501   8.463  13.392  0.00  0.00    +0.000 OA
ATOM      9  CB  VAL D   2       9.343   8.306  16.313  0.00  0.00    +0.000 C 
ATOM     10  CG1 VAL D   2       8.515   7.022  16.218  0.00  0.00    +0.000 C 
ATOM     11  CG2 VAL D   2       9.373   8.811  17.750  0.00  0.00    +0.000 C 
ATOM     12  N   VAL D   3      11.039   6.351  14.044  0.00  0.00    +0.000 N 
ATOM     13  H   VAL D   3      11.231   5.747  14.837  0.00  0.00    +0.000 HD
ATOM     14  CA  VAL D   3      11.001   5.732  12.728  0.00  0.00    +0.000 C 
ATOM     15  C   VAL D   3       9.634   6.019  12.080  0.00  0.00    +0.000 C 
ATOM     16  O   VAL D   3       8.586   5.793  12.701  0.00  0.00    +0.000 OA
ATOM     17  CB  VAL D   3      11.312   4.202  12.833  0.00  0.00    +0.000 C 
ATOM     18  CG1 VAL D   3      10.820   3.435  11.592  0.00  0.00    +0.000 C 
ATOM     19  CG2 VAL D   3      12.807   3.967  13.065  0.00  0.00    +0.000 C 
ATOM     20  N   LYS D   4       9.653   6.535  10.851  0.00  0.00    +0.000 N 
ATOM     21  H   LYS D   4      10.559   6.811  10.464  0.00  0.00    +0.000 HD
ATOM     22  CA  LYS D   4       8.432   6.844  10.108  0.00  0.00    +0.000 C 
ATOM     23  C   LYS D   4       7.747   5.563   9.691  0.00  0.00    +0.000 C 
ATOM     24  O   LYS D   4       8.406   4.575   9.344  0.00  0.00    +0.000 OA
ATOM     25  CB  LYS D   4       8.744   7.636   8.825  0.00  0.00    +0.000 C 
ATOM     26  CG  LYS D   4       9.200   9.060   9.032  0.00  0.00    +0.000 C 
ATOM     27  CD  LYS D   4       9.379   9.757   7.683  0.00  0.00    +0.000 C 
ATOM     28  CE  LYS D   4      10.137  11.059   7.784  0.00  0.00    +0.000 C 
ATOM     29  NZ  LYS D   4       9.316  12.138   8.395  0.00  0.00    +0.000 N 
ATOM     30  HZ1 LYS D   4       9.858  12.988   8.467  0.00  0.00    +0.000 HD
ATOM     31  HZ2 LYS D   4       8.489  12.315   7.841  0.00  0.00    +0.000 HD
ATOM     32  HZ3 LYS D   4       9.037  11.856   9.326  0.00  0.00    +0.000 HD
ATOM     33  N   NME D   5       6.422   5.613   9.655  0.00  0.00    +0.000 N 
ATOM     34  H   NME D   5       5.980   6.448   9.998  0.00  0.00    +0.000 HD
ATOM     35  C   NME D   5       5.570   4.528   9.196  0.00  0.00    +0.000 C 
TER 
REMARK  Name = /home/xianyang/aimnet2_score_pipelines/work/L1234-fixed-receptor-eint-20260921/L2/O14757/prepared.pdb
REMARK                            x       y       z     vdW  Elec       q    Type
REMARK                         _______ _______ _______ _____ _____    ______ ____
ATOM      1  CH3 ACE E   1       4.937  -3.047   7.404  0.00  0.00    +0.000 C 
ATOM      2  C   ACE E   1       6.015  -2.258   6.670  0.00  0.00    +0.000 C 
ATOM      3  O   ACE E   1       7.160  -2.716   6.607  0.00  0.00    +0.000 OA
ATOM      4  N   PHE E   2       5.640  -1.101   6.085  0.00  0.00    +0.000 N 
ATOM      5  H   PHE E   2       4.684  -0.801   6.182  0.00  0.00    +0.000 HD
ATOM      6  CA  PHE E   2       6.553  -0.231   5.324  0.00  0.00    +0.000 C 
ATOM      7  C   PHE E   2       7.090   0.868   6.236  0.00  0.00    +0.000 C 
ATOM      8  O   PHE E   2       6.353   1.757   6.658  0.00  0.00    +0.000 OA
ATOM      9  CB  PHE E   2       5.868   0.294   4.047  0.00  0.00    +0.000 C 
ATOM     10  CG  PHE E   2       5.174  -0.803   3.257  0.00  0.00    +0.000 A 
ATOM     11  CD1 PHE E   2       5.871  -1.935   2.838  0.00  0.00    +0.000 A 
ATOM     12  CD2 PHE E   2       3.814  -0.729   2.980  0.00  0.00    +0.000 A 
ATOM     13  CE1 PHE E   2       5.224  -2.956   2.121  0.00  0.00    +0.000 A 
ATOM     14  CE2 PHE E   2       3.169  -1.747   2.264  0.00  0.00    +0.000 A 
ATOM     15  CZ  PHE E   2       3.880  -2.853   1.835  0.00  0.00    +0.000 A 
ATOM     16  N   LEU E   3       8.366   0.744   6.605  0.00  0.00    +0.000 N 
ATOM     17  H   LEU E   3       8.917  -0.027   6.243  0.00  0.00    +0.000 HD
ATOM     18  CA  LEU E   3       9.006   1.593   7.602  0.00  0.00    +0.000 C 
ATOM     19  C   LEU E   3      10.237   2.327   7.116  0.00  0.00    +0.000 C 
ATOM     20  O   LEU E   3      10.791   1.997   6.067  0.00  0.00    +0.000 OA
ATOM     21  CB  LEU E   3       9.334   0.750   8.854  0.00  0.00    +0.000 C 
ATOM     22  CG  LEU E   3       8.122   0.119   9.569  0.00  0.00    +0.000 C 
ATOM     23  CD1 LEU E   3       8.529  -1.153  10.324  0.00  0.00    +0.000 C 
ATOM     24  CD2 LEU E   3       7.435   1.132  10.485  0.00  0.00    +0.000 C 
ATOM     25  N   GLU E   4      10.657   3.334   7.884  0.00  0.00    +0.000 N 
ATOM     26  H   GLU E   4      10.095   3.605   8.685  0.00  0.00    +0.000 HD
ATOM     27  CA  GLU E   4      11.820   4.137   7.539  0.00  0.00    +0.000 C 
ATOM     28  C   GLU E   4      13.112   3.317   7.498  0.00  0.00    +0.000 C 
ATOM     29  O   GLU E   4      13.439   2.611   8.464  0.00  0.00    +0.000 OA
ATOM     30  CB  GLU E   4      11.972   5.295   8.539  0.00  0.00    +0.000 C 
ATOM     31  CG  GLU E   4      13.053   6.294   8.167  0.00  0.00    +0.000 C 
ATOM     32  CD  GLU E   4      13.076   7.537   9.029  0.00  0.00    +0.000 C 
ATOM     33  OE1 GLU E   4      13.974   8.382   8.813  0.00  0.00    +0.000 OA
ATOM     34  OE2 GLU E   4      12.210   7.666   9.927  0.00  0.00    +0.000 OA
ATOM     35  N   TYR E   5      13.847   3.450   6.392  0.00  0.00    +0.000 N 
ATOM     36  H   TYR E   5      13.530   4.087   5.677  0.00  0.00    +0.000 HD
ATOM     37  CA  TYR E   5      15.162   2.864   6.224  0.00  0.00    +0.000 C 
ATOM     38  C   TYR E   5      16.128   3.903   6.764  0.00  0.00    +0.000 C 
ATOM     39  O   TYR E   5      16.209   5.025   6.262  0.00  0.00    +0.000 OA
ATOM     40  CB  TYR E   5      15.478   2.527   4.749  0.00  0.00    +0.000 C 
ATOM     41  CG  TYR E   5      16.919   2.109   4.544  0.00  0.00    +0.000 A 
ATOM     42  CD1 TYR E   5      17.412   0.930   5.101  0.00  0.00    +0.000 A 
ATOM     43  CD2 TYR E   5      17.792   2.892   3.794  0.00  0.00    +0.000 A 
ATOM     44  CE1 TYR E   5      18.744   0.551   4.930  0.00  0.00    +0.000 A 
ATOM     45  CE2 TYR E   5      19.116   2.504   3.587  0.00  0.00    +0.000 A 
ATOM     46  CZ  TYR E   5      19.595   1.346   4.180  0.00  0.00    +0.000 A 
ATOM     47  OH  TYR E   5      20.900   0.964   3.983  0.00  0.00    +0.000 OA
ATOM     48  HH  TYR E   5      21.378   1.558   3.389  0.00  0.00    +0.000 HD
ATOM     49  N   CYS E   6      16.820   3.528   7.821  0.00  0.00    +0.000 N 
ATOM     50  H   CYS E   6      16.603   2.626   8.213  0.00  0.00    +0.000 HD
ATOM     51  CA  CYS E   6      17.743   4.360   8.576  0.00  0.00    +0.000 C 
ATOM     52  C   CYS E   6      19.116   3.830   8.237  0.00  0.00    +0.000 C 
ATOM     53  O   CYS E   6      19.605   2.901   8.877  0.00  0.00    +0.000 OA
ATOM     54  CB  CYS E   6      17.427   4.232  10.067  0.00  0.00    +0.000 C 
ATOM     55  SG  CYS E   6      15.749   4.754  10.512  0.00  0.00    +0.000 S 
ATOM     56  HG  CYS E   6      15.965   6.076  10.595  0.00  0.00    +0.000 HD
ATOM     57  N   SER E   7      19.714   4.407   7.197  0.00  0.00    +0.000 N 
ATOM     58  H   SER E   7      19.210   5.154   6.738  0.00  0.00    +0.000 HD
ATOM     59  CA  SER E   7      20.968   3.973   6.558  0.00  0.00    +0.000 C 
ATOM     60  C   SER E   7      22.195   3.920   7.493  0.00  0.00    +0.000 C 
ATOM     61  O   SER E   7      23.143   3.207   7.189  0.00  0.00    +0.000 OA
ATOM     62  CB  SER E   7      21.260   4.816   5.320  0.00  0.00    +0.000 C 
ATOM     63  OG  SER E   7      21.621   6.146   5.662  0.00  0.00    +0.000 OA
ATOM     64  HG  SER E   7      22.563   6.168   5.885  0.00  0.00    +0.000 HD
ATOM     65  N   GLY E   8      22.143   4.621   8.623  0.00  0.00    +0.000 N 
ATOM     66  H   GLY E   8      21.282   5.093   8.874  0.00  0.00    +0.000 HD
ATOM     67  CA  GLY E   8      23.219   4.607   9.612  0.00  0.00    +0.000 C 
ATOM     68  C   GLY E   8      23.217   3.363  10.497  0.00  0.00    +0.000 C 
ATOM     69  O   GLY E   8      24.149   3.155  11.277  0.00  0.00    +0.000 OA
ATOM     70  N   GLY E   9      22.175   2.544  10.381  0.00  0.00    +0.000 N 
ATOM     71  H   GLY E   9      21.418   2.813   9.765  0.00  0.00    +0.000 HD
ATOM     72  CA  GLY E   9      22.025   1.301  11.127  0.00  0.00    +0.000 C 
ATOM     73  C   GLY E   9      21.701   1.489  12.599  0.00  0.00    +0.000 C 
ATOM     74  O   GLY E   9      21.211   2.540  13.017  0.00  0.00    +0.000 OA
ATOM     75  N   GLU E  10      22.042   0.493  13.406  0.00  0.00    +0.000 N 
ATOM     76  H   GLU E  10      22.530  -0.307  13.038  0.00  0.00    +0.000 HD
ATOM     77  CA  GLU E  10      21.762   0.519  14.838  0.00  0.00    +0.000 C 
ATOM     78  C   GLU E  10      22.787   1.291  15.618  0.00  0.00    +0.000 C 
ATOM     79  O   GLU E  10      23.987   1.191  15.343  0.00  0.00    +0.000 OA
ATOM     80  CB  GLU E  10      21.726  -0.906  15.415  0.00  0.00    +0.000 C 
ATOM     81  CG  GLU E  10      20.729  -1.831  14.756  0.00  0.00    +0.000 C 
ATOM     82  CD  GLU E  10      20.782  -3.236  15.309  0.00  0.00    +0.000 C 
ATOM     83  OE1 GLU E  10      19.857  -4.018  15.010  0.00  0.00    +0.000 OA
ATOM     84  OE2 GLU E  10      21.700  -3.529  16.106  0.00  0.00    +0.000 OA
ATOM     85  N   LEU E  11      22.315   1.958  16.681  0.00  0.00    +0.000 N 
ATOM     86  H   LEU E  11      21.311   1.973  16.832  0.00  0.00    +0.000 HD
ATOM     87  CA  LEU E  11      23.161   2.638  17.662  0.00  0.00    +0.000 C 
ATOM     88  C   LEU E  11      24.074   1.555  18.265  0.00  0.00    +0.000 C 
ATOM     89  O   LEU E  11      25.199   1.843  18.625  0.00  0.00    +0.000 OA
ATOM     90  CB  LEU E  11      22.272   3.235  18.769  0.00  0.00    +0.000 C 
ATOM     91  CG  LEU E  11      23.012   3.933  19.930  0.00  0.00    +0.000 C 
ATOM     92  CD1 LEU E  11      23.764   5.175  19.431  0.00  0.00    +0.000 C 
ATOM     93  CD2 LEU E  11      22.040   4.285  21.065  0.00  0.00    +0.000 C 
ATOM     94  N   NME E  12      23.570   0.307  18.361  0.00  0.00    +0.000 N 
ATOM     95  H   NME E  12      22.619   0.160  18.042  0.00  0.00    +0.000 HD
ATOM     96  C   NME E  12      24.313  -0.845  18.869  0.00  0.00    +0.000 C 
TER 
REMARK  Name = /home/xianyang/aimnet2_score_pipelines/work/L1234-fixed-receptor-eint-20260921/L2/O14757/prepared.pdb
REMARK                            x       y       z     vdW  Elec       q    Type
REMARK                         _______ _______ _______ _____ _____    ______ ____
ATOM      1  CH3 ACE F   1      17.835  -0.705  23.746  0.00  0.00    +0.000 C 
ATOM      2  C   ACE F   1      18.556  -0.268  22.467  0.00  0.00    +0.000 C 
ATOM      3  O   ACE F   1      17.885   0.116  21.519  0.00  0.00    +0.000 OA
ATOM      4  N   PRO F   2      19.904  -0.365  22.402  0.00  0.00    +0.000 N 
ATOM      5  CA  PRO F   2      20.645   0.124  21.218  0.00  0.00    +0.000 C 
ATOM      6  C   PRO F   2      20.313  -0.572  19.890  0.00  0.00    +0.000 C 
ATOM      7  O   PRO F   2      20.478   0.032  18.829  0.00  0.00    +0.000 OA
ATOM      8  CB  PRO F   2      22.102  -0.072  21.638  0.00  0.00    +0.000 C 
ATOM      9  CG  PRO F   2      22.060   0.044  23.162  0.00  0.00    +0.000 C 
ATOM     10  CD  PRO F   2      20.844  -0.767  23.472  0.00  0.00    +0.000 C 
ATOM     11  N   GLU F   3      19.797  -1.809  19.945  0.00  0.00    +0.000 N 
ATOM     12  H   GLU F   3      19.805  -2.313  20.833  0.00  0.00    +0.000 HD
ATOM     13  CA  GLU F   3      19.353  -2.549  18.767  0.00  0.00    +0.000 C 
ATOM     14  C   GLU F   3      18.095  -1.893  18.168  0.00  0.00    +0.000 C 
ATOM     15  O   GLU F   3      17.827  -2.048  16.977  0.00  0.00    +0.000 OA
ATOM     16  CB  GLU F   3      19.054  -4.033  19.121  0.00  0.00    +0.000 C 
ATOM     17  CG  GLU F   3      20.267  -4.773  19.684  0.00  0.00    +0.000 C 
ATOM     18  CD  GLU F   3      20.428  -4.773  21.199  0.00  0.00    +0.000 C 
ATOM     19  OE1 GLU F   3      20.124  -3.753  21.859  0.00  0.00    +0.000 OA
ATOM     20  OE2 GLU F   3      20.877  -5.810  21.732  0.00  0.00    +0.000 OA
ATOM     21  N   ASN F   4      17.331  -1.184  19.008  0.00  0.00    +0.000 N 
ATOM     22  H   ASN F   4      17.649  -1.083  19.963  0.00  0.00    +0.000 HD
ATOM     23  CA  ASN F   4      16.066  -0.534  18.629  0.00  0.00    +0.000 C 
ATOM     24  C   ASN F   4      16.191   0.956  18.390  0.00  0.00    +0.000 C 
ATOM     25  O   ASN F   4      15.182   1.621  18.191  0.00  0.00    +0.000 OA
ATOM     26  CB  ASN F   4      14.979  -0.847  19.688  0.00  0.00    +0.000 C 
ATOM     27  CG  ASN F   4      14.418  -2.243  19.515  0.00  0.00    +0.000 C 
ATOM     28  OD1 ASN F   4      14.456  -2.830  18.418  0.00  0.00    +0.000 OA
ATOM     29  ND2 ASN F   4      13.870  -2.805  20.577  0.00  0.00    +0.000 N 
ATOM     30 HD21 ASN F   4      13.565  -3.760  20.424  0.00  0.00    +0.000 HD
ATOM     31 HD22 ASN F   4      13.626  -2.240  21.368  0.00  0.00    +0.000 HD
ATOM     32  N   LEU F   5      17.418   1.485  18.420  0.00  0.00    +0.000 N 
ATOM     33  H   LEU F   5      18.210   0.863  18.535  0.00  0.00    +0.000 HD
ATOM     34  CA  LEU F   5      17.671   2.914  18.219  0.00  0.00    +0.000 C 
ATOM     35  C   LEU F   5      18.468   3.013  16.936  0.00  0.00    +0.000 C 
ATOM     36  O   LEU F   5      19.610   2.576  16.887  0.00  0.00    +0.000 OA
ATOM     37  CB  LEU F   5      18.376   3.536  19.441  0.00  0.00    +0.000 C 
ATOM     38  CG  LEU F   5      17.585   3.383  20.753  0.00  0.00    +0.000 C 
ATOM     39  CD1 LEU F   5      18.389   3.880  21.962  0.00  0.00    +0.000 C 
ATOM     40  CD2 LEU F   5      16.195   4.095  20.651  0.00  0.00    +0.000 C 
ATOM     41  N   LEU F   6      17.796   3.421  15.855  0.00  0.00    +0.000 N 
ATOM     42  H   LEU F   6      16.865   3.810  15.966  0.00  0.00    +0.000 HD
ATOM     43  CA  LEU F   6      18.419   3.455  14.530  0.00  0.00    +0.000 C 
ATOM     44  C   LEU F   6      18.909   4.839  14.199  0.00  0.00    +0.000 C 
ATOM     45  O   LEU F   6      18.497   5.802  14.840  0.00  0.00    +0.000 OA
ATOM     46  CB  LEU F   6      17.475   2.915  13.448  0.00  0.00    +0.000 C 
ATOM     47  CG  LEU F   6      16.771   1.574  13.765  0.00  0.00    +0.000 C 
ATOM     48  CD1 LEU F   6      15.883   1.147  12.591  0.00  0.00    +0.000 C 
ATOM     49  CD2 LEU F   6      17.793   0.446  14.124  0.00  0.00    +0.000 C 
ATOM     50  N   LEU F   7      19.820   4.928  13.226  0.00  0.00    +0.000 N 
ATOM     51  H   LEU F   7      20.184   4.063  12.837  0.00  0.00    +0.000 HD
ATOM     52  CA  LEU F   7      20.452   6.170  12.824  0.00  0.00    +0.000 C 
ATOM     53  C   LEU F   7      20.180   6.450  11.355  0.00  0.00    +0.000 C 
ATOM     54  O   LEU F   7      20.335   5.561  10.527  0.00  0.00    +0.000 OA
ATOM     55  CB  LEU F   7      21.969   6.093  13.120  0.00  0.00    +0.000 C 
ATOM     56  CG  LEU F   7      22.345   5.888  14.619  0.00  0.00    +0.000 C 
ATOM     57  CD1 LEU F   7      23.822   5.657  14.792  0.00  0.00    +0.000 C 
ATOM     58  CD2 LEU F   7      21.900   7.052  15.482  0.00  0.00    +0.000 C 
ATOM     59  N   NME F   8      19.739   7.669  11.025  0.00  0.00    +0.000 N 
ATOM     60  H   NME F   8      19.573   8.354  11.747  0.00  0.00    +0.000 HD
ATOM     61  C   NME F   8      19.479   8.009   9.618  0.00  0.00    +0.000 C 
TER 
REMARK  Name = /home/xianyang/aimnet2_score_pipelines/work/L1234-fixed-receptor-eint-20260921/L2/O14757/prepared.pdb
REMARK                            x       y       z     vdW  Elec       q    Type
REMARK                         _______ _______ _______ _____ _____    ______ ____
ATOM      1  CH3 ACE G   1      15.126   7.196  15.540  0.00  0.00    +0.000 C 
ATOM      2  C   ACE G   1      14.753   5.988  16.376  0.00  0.00    +0.000 C 
ATOM      3  O   ACE G   1      15.359   4.916  16.215  0.00  0.00    +0.000 OA
ATOM      4  N   ILE G   2      13.735   6.126  17.223  0.00  0.00    +0.000 N 
ATOM      5  H   ILE G   2      13.303   7.037  17.329  0.00  0.00    +0.000 HD
ATOM      6  CA  ILE G   2      13.247   5.007  18.022  0.00  0.00    +0.000 C 
ATOM      7  C   ILE G   2      12.510   4.066  17.060  0.00  0.00    +0.000 C 
ATOM      8  O   ILE G   2      11.709   4.507  16.248  0.00  0.00    +0.000 OA
ATOM      9  CB  ILE G   2      12.317   5.461  19.161  0.00  0.00    +0.000 C 
ATOM     10  CG1 ILE G   2      13.065   6.390  20.124  0.00  0.00    +0.000 C 
ATOM     11  CG2 ILE G   2      11.754   4.254  19.892  0.00  0.00    +0.000 C 
ATOM     12  CD1 ILE G   2      12.225   6.900  21.270  0.00  0.00    +0.000 C 
ATOM     13  N   SER G   3      12.784   2.775  17.171  0.00  0.00    +0.000 N 
ATOM     14  H   SER G   3      13.479   2.461  17.842  0.00  0.00    +0.000 HD
ATOM     15  CA  SER G   3      12.224   1.765  16.279  0.00  0.00    +0.000 C 
ATOM     16  C   SER G   3      11.541   0.574  16.960  0.00  0.00    +0.000 C 
ATOM     17  O   SER G   3      11.804   0.276  18.113  0.00  0.00    +0.000 OA
ATOM     18  CB  SER G   3      13.345   1.257  15.364  0.00  0.00    +0.000 C 
ATOM     19  OG  SER G   3      13.051   0.006  14.790  0.00  0.00    +0.000 OA
ATOM     20  HG  SER G   3      13.606  -0.107  13.994  0.00  0.00    +0.000 HD
ATOM     21  N   ASP G   4      10.674  -0.094  16.202  0.00  0.00    +0.000 N 
ATOM     22  H   ASP G   4      10.658   0.145  15.226  0.00  0.00    +0.000 HD
ATOM     23  CA  ASP G   4       9.920  -1.273  16.631  0.00  0.00    +0.000 C 
ATOM     24  C   ASP G   4       8.939  -1.039  17.779  0.00  0.00    +0.000 C 
ATOM     25  O   ASP G   4       9.330  -0.939  18.932  0.00  0.00    +0.000 OA
ATOM     26  CB  ASP G   4      10.881  -2.406  16.981  0.00  0.00    +0.000 C 
ATOM     27  CG  ASP G   4      10.241  -3.764  16.851  0.00  0.00    +0.000 C 
ATOM     28  OD1 ASP G   4       9.159  -3.962  17.420  0.00  0.00    +0.000 OA
ATOM     29  OD2 ASP G   4      10.821  -4.629  16.172  0.00  0.00    +0.000 OA
ATOM     30  N   PHE G   5       7.656  -0.979  17.434  0.00  0.00    +0.000 N 
ATOM     31  H   PHE G   5       7.397  -1.129  16.470  0.00  0.00    +0.000 HD
ATOM     32  CA  PHE G   5       6.605  -0.715  18.397  0.00  0.00    +0.000 C 
ATOM     33  C   PHE G   5       5.806  -1.970  18.689  0.00  0.00    +0.000 C 
ATOM     34  O   PHE G   5       4.684  -1.915  19.168  0.00  0.00    +0.000 OA
ATOM     35  CB  PHE G   5       5.757   0.475  17.958  0.00  0.00    +0.000 C 
ATOM     36  CG  PHE G   5       6.473   1.781  18.113  0.00  0.00    +0.000 A 
ATOM     37  CD1 PHE G   5       7.323   2.239  17.124  0.00  0.00    +0.000 A 
ATOM     38  CD2 PHE G   5       6.351   2.514  19.273  0.00  0.00    +0.000 A 
ATOM     39  CE1 PHE G   5       8.014   3.424  17.280  0.00  0.00    +0.000 A 
ATOM     40  CE2 PHE G   5       7.034   3.700  19.433  0.00  0.00    +0.000 A 
ATOM     41  CZ  PHE G   5       7.870   4.153  18.438  0.00  0.00    +0.000 A 
ATOM     42  N   GLY G   6       6.419  -3.102  18.364  0.00  0.00    +0.000 N 
ATOM     43  H   GLY G   6       7.362  -3.077  17.979  0.00  0.00    +0.000 HD
ATOM     44  CA  GLY G   6       5.827  -4.400  18.572  0.00  0.00    +0.000 C 
ATOM     45  C   GLY G   6       5.451  -4.637  20.022  0.00  0.00    +0.000 C 
ATOM     46  O   GLY G   6       4.470  -5.305  20.297  0.00  0.00    +0.000 OA
ATOM     47  N   LEU G   7       6.245  -4.119  20.949  0.00  0.00    +0.000 N 
ATOM     48  H   LEU G   7       7.075  -3.621  20.660  0.00  0.00    +0.000 HD
ATOM     49  CA  LEU G   7       5.953  -4.318  22.378  0.00  0.00    +0.000 C 
ATOM     50  C   LEU G   7       5.293  -3.105  23.006  0.00  0.00    +0.000 C 
ATOM     51  O   LEU G   7       4.975  -3.140  24.198  0.00  0.00    +0.000 OA
ATOM     52  CB  LEU G   7       7.229  -4.703  23.176  0.00  0.00    +0.000 C 
ATOM     53  CG  LEU G   7       7.892  -6.067  22.847  0.00  0.00    +0.000 C 
ATOM     54  CD1 LEU G   7       9.140  -6.277  23.678  0.00  0.00    +0.000 C 
ATOM     55  CD2 LEU G   7       6.911  -7.258  23.072  0.00  0.00    +0.000 C 
ATOM     56  N   NME G   8       5.089  -2.032  22.213  0.00  0.00    +0.000 N 
ATOM     57  H   NME G   8       5.267  -2.135  21.222  0.00  0.00    +0.000 HD
ATOM     58  C   NME G   8       4.546  -0.763  22.689  0.00  0.00    +0.000 C 
TER 
