REMARK  Name = /home/xianyang/aimnet2_score_pipelines/work/L1234-fixed-receptor-eint-20260921/L2/O75460/prepared.pdb
REMARK                            x       y       z     vdW  Elec       q    Type
REMARK                         _______ _______ _______ _____ _____    ______ ____
ATOM      1  CH3 ACE A   1      21.128  47.034  33.356  0.00  0.00    +0.000 C 
ATOM      2  C   ACE A   1      21.118  45.515  33.295  0.00  0.00    +0.000 C 
ATOM      3  O   ACE A   1      22.191  44.908  33.364  0.00  0.00    +0.000 OA
ATOM      4  N   ASP A   2      19.942  44.891  33.146  0.00  0.00    +0.000 N 
ATOM      5  H   ASP A   2      19.109  45.433  33.302  0.00  0.00    +0.000 HD
ATOM      6  CA  ASP A   2      19.809  43.430  33.155  0.00  0.00    +0.000 C 
ATOM      7  C   ASP A   2      19.803  42.918  31.720  0.00  0.00    +0.000 C 
ATOM      8  O   ASP A   2      18.764  42.631  31.128  0.00  0.00    +0.000 OA
ATOM      9  CB  ASP A   2      18.545  42.991  33.895  0.00  0.00    +0.000 C 
ATOM     10  CG  ASP A   2      18.358  43.697  35.223  0.00  0.00    +0.000 C 
ATOM     11  OD1 ASP A   2      17.298  43.487  35.864  0.00  0.00    +0.000 OA
ATOM     12  OD2 ASP A   2      19.266  44.462  35.620  0.00  0.00    +0.000 OA
ATOM     13  N   VAL A   3      20.991  42.794  31.153  0.00  0.00    +0.000 N 
ATOM     14  H   VAL A   3      21.819  43.050  31.677  0.00  0.00    +0.000 HD
ATOM     15  CA  VAL A   3      21.101  42.298  29.790  0.00  0.00    +0.000 C 
ATOM     16  C   VAL A   3      21.150  40.784  29.856  0.00  0.00    +0.000 C 
ATOM     17  O   VAL A   3      22.043  40.217  30.491  0.00  0.00    +0.000 OA
ATOM     18  CB  VAL A   3      22.341  42.863  29.094  0.00  0.00    +0.000 C 
ATOM     19  CG1 VAL A   3      22.628  42.071  27.858  0.00  0.00    +0.000 C 
ATOM     20  CG2 VAL A   3      22.133  44.357  28.771  0.00  0.00    +0.000 C 
ATOM     21  N   LEU A   4      20.178  40.125  29.227  0.00  0.00    +0.000 N 
ATOM     22  H   LEU A   4      19.445  40.644  28.769  0.00  0.00    +0.000 HD
ATOM     23  CA  LEU A   4      20.213  38.671  29.143  0.00  0.00    +0.000 C 
ATOM     24  C   LEU A   4      21.021  38.150  27.960  0.00  0.00    +0.000 C 
ATOM     25  O   LEU A   4      21.418  36.983  27.980  0.00  0.00    +0.000 OA
ATOM     26  CB  LEU A   4      18.797  38.105  29.063  0.00  0.00    +0.000 C 
ATOM     27  CG  LEU A   4      17.914  38.600  30.203  0.00  0.00    +0.000 C 
ATOM     28  CD1 LEU A   4      16.501  38.066  30.040  0.00  0.00    +0.000 C 
ATOM     29  CD2 LEU A   4      18.526  38.193  31.529  0.00  0.00    +0.000 C 
ATOM     30  N   GLY A   5      21.280  38.964  26.944  0.00  0.00    +0.000 N 
ATOM     31  H   GLY A   5      20.910  39.907  26.950  0.00  0.00    +0.000 HD
ATOM     32  CA  GLY A   5      22.026  38.492  25.797  0.00  0.00    +0.000 C 
ATOM     33  C   GLY A   5      21.802  39.362  24.575  0.00  0.00    +0.000 C 
ATOM     34  O   GLY A   5      21.269  40.471  24.658  0.00  0.00    +0.000 OA
ATOM     35  N   HIS A   6      22.228  38.815  23.433  0.00  0.00    +0.000 N 
ATOM     36  H   HIS A   6      22.509  37.844  23.431  0.00  0.00    +0.000 HD
ATOM     37  CA  HIS A   6      22.194  39.484  22.140  0.00  0.00    +0.000 C 
ATOM     38  C   HIS A   6      21.649  38.533  21.081  0.00  0.00    +0.000 C 
ATOM     39  O   HIS A   6      21.438  37.342  21.331  0.00  0.00    +0.000 OA
ATOM     40  CB  HIS A   6      23.587  39.965  21.735  0.00  0.00    +0.000 C 
ATOM     41  CG  HIS A   6      24.269  40.784  22.782  0.00  0.00    +0.000 A 
ATOM     42  ND1 HIS A   6      24.615  40.280  24.018  0.00  0.00    +0.000 N 
ATOM     43  HD1 HIS A   6      24.498  39.328  24.315  0.00  0.00    +0.000 HD
ATOM     44  CD2 HIS A   6      24.682  42.073  22.770  0.00  0.00    +0.000 A 
ATOM     45  CE1 HIS A   6      25.199  41.230  24.727  0.00  0.00    +0.000 A 
ATOM     46  NE2 HIS A   6      25.255  42.327  23.992  0.00  0.00    +0.000 NA
ATOM     47  N   GLY A   7      21.446  39.069  19.875  0.00  0.00    +0.000 N 
ATOM     48  H   GLY A   7      21.659  40.051  19.752  0.00  0.00    +0.000 HD
ATOM     49  CA  GLY A   7      21.000  38.269  18.747  0.00  0.00    +0.000 C 
ATOM     50  C   GLY A   7      21.931  38.359  17.554  0.00  0.00    +0.000 C 
ATOM     51  O   GLY A   7      22.347  37.333  17.007  0.00  0.00    +0.000 OA
ATOM     52  N   ALA A   8      22.246  39.601  17.165  0.00  0.00    +0.000 N 
ATOM     53  H   ALA A   8      21.755  40.355  17.616  0.00  0.00    +0.000 HD
ATOM     54  CA  ALA A   8      23.174  40.021  16.115  0.00  0.00    +0.000 C 
ATOM     55  C   ALA A   8      22.682  41.363  15.607  0.00  0.00    +0.000 C 
ATOM     56  O   ALA A   8      21.473  41.612  15.625  0.00  0.00    +0.000 OA
ATOM     57  CB  ALA A   8      23.267  39.037  14.945  0.00  0.00    +0.000 C 
ATOM     58  N   NME A   9      23.593  42.232  15.162  0.00  0.00    +0.000 N 
ATOM     59  H   NME A   9      24.564  41.963  15.185  0.00  0.00    +0.000 HD
ATOM     60  C   NME A   9      23.241  43.509  14.534  0.00  0.00    +0.000 C 
TER 
REMARK  Name = /home/xianyang/aimnet2_score_pipelines/work/L1234-fixed-receptor-eint-20260921/L2/O75460/prepared.pdb
REMARK                            x       y       z     vdW  Elec       q    Type
REMARK                         _______ _______ _______ _____ _____    ______ ____
ATOM      1  CH3 ACE B   1      19.921  42.935  18.781  0.00  0.00    +0.000 C 
ATOM      2  C   ACE B   1      20.432  42.733  20.206  0.00  0.00    +0.000 C 
ATOM      3  O   ACE B   1      21.563  42.271  20.417  0.00  0.00    +0.000 OA
ATOM      4  N   ILE B   2      19.598  43.119  21.176  0.00  0.00    +0.000 N 
ATOM      5  H   ILE B   2      18.690  43.474  20.901  0.00  0.00    +0.000 HD
ATOM      6  CA  ILE B   2      19.874  43.033  22.606  0.00  0.00    +0.000 C 
ATOM      7  C   ILE B   2      18.637  42.497  23.322  0.00  0.00    +0.000 C 
ATOM      8  O   ILE B   2      17.504  42.699  22.873  0.00  0.00    +0.000 OA
ATOM      9  CB  ILE B   2      20.284  44.412  23.174  0.00  0.00    +0.000 C 
ATOM     10  CG1 ILE B   2      21.032  44.262  24.512  0.00  0.00    +0.000 C 
ATOM     11  CG2 ILE B   2      19.075  45.385  23.184  0.00  0.00    +0.000 C 
ATOM     12  CD1 ILE B   2      22.500  43.858  24.400  0.00  0.00    +0.000 C 
ATOM     13  N   VAL B   3      18.854  41.798  24.438  0.00  0.00    +0.000 N 
ATOM     14  H   VAL B   3      19.810  41.614  24.732  0.00  0.00    +0.000 HD
ATOM     15  CA  VAL B   3      17.766  41.198  25.204  0.00  0.00    +0.000 C 
ATOM     16  C   VAL B   3      17.900  41.569  26.677  0.00  0.00    +0.000 C 
ATOM     17  O   VAL B   3      18.935  41.309  27.303  0.00  0.00    +0.000 OA
ATOM     18  CB  VAL B   3      17.727  39.666  25.050  0.00  0.00    +0.000 C 
ATOM     19  CG1 VAL B   3      16.622  39.111  25.924  0.00  0.00    +0.000 C 
ATOM     20  CG2 VAL B   3      17.518  39.278  23.597  0.00  0.00    +0.000 C 
ATOM     21  N   TYR B   4      16.837  42.133  27.240  0.00  0.00    +0.000 N 
ATOM     22  H   TYR B   4      16.019  42.319  26.670  0.00  0.00    +0.000 HD
ATOM     23  CA  TYR B   4      16.818  42.539  28.634  0.00  0.00    +0.000 C 
ATOM     24  C   TYR B   4      15.813  41.718  29.421  0.00  0.00    +0.000 C 
ATOM     25  O   TYR B   4      14.822  41.225  28.868  0.00  0.00    +0.000 OA
ATOM     26  CB  TYR B   4      16.453  44.019  28.797  0.00  0.00    +0.000 C 
ATOM     27  CG  TYR B   4      17.196  44.983  27.898  0.00  0.00    +0.000 A 
ATOM     28  CD1 TYR B   4      18.450  45.483  28.251  0.00  0.00    +0.000 A 
ATOM     29  CD2 TYR B   4      16.629  45.426  26.715  0.00  0.00    +0.000 A 
ATOM     30  CE1 TYR B   4      19.122  46.383  27.431  0.00  0.00    +0.000 A 
ATOM     31  CE2 TYR B   4      17.291  46.332  25.895  0.00  0.00    +0.000 A 
ATOM     32  CZ  TYR B   4      18.535  46.803  26.253  0.00  0.00    +0.000 A 
ATOM     33  OH  TYR B   4      19.177  47.693  25.419  0.00  0.00    +0.000 OA
ATOM     34  HH  TYR B   4      20.013  47.943  25.804  0.00  0.00    +0.000 HD
ATOM     35  N   ARG B   5      16.077  41.587  30.723  0.00  0.00    +0.000 N 
ATOM     36  H   ARG B   5      16.917  42.033  31.089  0.00  0.00    +0.000 HD
ATOM     37  CA  ARG B   5      15.048  41.134  31.649  0.00  0.00    +0.000 C 
ATOM     38  C   ARG B   5      14.035  42.251  31.843  0.00  0.00    +0.000 C 
ATOM     39  O   ARG B   5      14.396  43.428  31.859  0.00  0.00    +0.000 OA
ATOM     40  CB  ARG B   5      15.654  40.736  33.000  0.00  0.00    +0.000 C 
ATOM     41  CG  ARG B   5      14.619  40.214  33.981  0.00  0.00    +0.000 C 
ATOM     42  CD  ARG B   5      15.210  39.508  35.185  0.00  0.00    +0.000 C 
ATOM     43  NE  ARG B   5      14.150  39.237  36.154  0.00  0.00    +0.000 N 
ATOM     44  HE  ARG B   5      13.512  39.991  36.349  0.00  0.00    +0.000 HD
ATOM     45  CZ  ARG B   5      13.987  38.097  36.813  0.00  0.00    +0.000 C 
ATOM     46  NH1 ARG B   5      12.952  37.908  37.612  0.00  0.00    +0.000 N 
ATOM     47 HH11 ARG B   5      12.280  38.642  37.751  0.00  0.00    +0.000 HD
ATOM     48 HH12 ARG B   5      12.843  37.038  38.102  0.00  0.00    +0.000 HD
ATOM     49  NH2 ARG B   5      14.878  37.118  36.657  0.00  0.00    +0.000 N 
ATOM     50 HH21 ARG B   5      15.689  37.290  36.091  0.00  0.00    +0.000 HD
ATOM     51 HH22 ARG B   5      14.768  36.243  37.134  0.00  0.00    +0.000 HD
ATOM     52  N   NME B   6      12.768  41.888  31.972  0.00  0.00    +0.000 N 
ATOM     53  H   NME B   6      12.501  40.927  31.791  0.00  0.00    +0.000 HD
ATOM     54  C   NME B   6      11.751  42.902  32.127  0.00  0.00    +0.000 C 
TER 
REMARK  Name = /home/xianyang/aimnet2_score_pipelines/work/L1234-fixed-receptor-eint-20260921/L2/O75460/prepared.pdb
REMARK                            x       y       z     vdW  Elec       q    Type
REMARK                         _______ _______ _______ _____ _____    ______ ____
ATOM      1  CH3 ACE C   1       8.285  38.088  33.863  0.00  0.00    +0.000 C 
ATOM      2  C   ACE C   1       8.582  37.738  32.415  0.00  0.00    +0.000 C 
ATOM      3  O   ACE C   1       8.304  36.621  31.968  0.00  0.00    +0.000 OA
ATOM      4  N   VAL C   2       9.148  38.693  31.683  0.00  0.00    +0.000 N 
ATOM      5  H   VAL C   2       9.380  39.575  32.109  0.00  0.00    +0.000 HD
ATOM      6  CA  VAL C   2       9.467  38.499  30.279  0.00  0.00    +0.000 C 
ATOM      7  C   VAL C   2      10.942  38.778  30.026  0.00  0.00    +0.000 C 
ATOM      8  O   VAL C   2      11.624  39.472  30.782  0.00  0.00    +0.000 OA
ATOM      9  CB  VAL C   2       8.609  39.389  29.374  0.00  0.00    +0.000 C 
ATOM     10  CG1 VAL C   2       7.174  38.950  29.439  0.00  0.00    +0.000 C 
ATOM     11  CG2 VAL C   2       8.736  40.832  29.834  0.00  0.00    +0.000 C 
ATOM     12  N   ALA C   3      11.428  38.209  28.938  0.00  0.00    +0.000 N 
ATOM     13  H   ALA C   3      10.798  37.628  28.392  0.00  0.00    +0.000 HD
ATOM     14  CA  ALA C   3      12.611  38.709  28.269  0.00  0.00    +0.000 C 
ATOM     15  C   ALA C   3      12.165  39.597  27.117  0.00  0.00    +0.000 C 
ATOM     16  O   ALA C   3      11.137  39.348  26.482  0.00  0.00    +0.000 OA
ATOM     17  CB  ALA C   3      13.473  37.561  27.756  0.00  0.00    +0.000 C 
ATOM     18  N   VAL C   4      12.939  40.641  26.853  0.00  0.00    +0.000 N 
ATOM     19  H   VAL C   4      13.747  40.806  27.448  0.00  0.00    +0.000 HD
ATOM     20  CA  VAL C   4      12.531  41.707  25.949  0.00  0.00    +0.000 C 
ATOM     21  C   VAL C   4      13.663  41.944  24.964  0.00  0.00    +0.000 C 
ATOM     22  O   VAL C   4      14.718  42.475  25.340  0.00  0.00    +0.000 OA
ATOM     23  CB  VAL C   4      12.195  42.996  26.706  0.00  0.00    +0.000 C 
ATOM     24  CG1 VAL C   4      11.850  44.092  25.729  0.00  0.00    +0.000 C 
ATOM     25  CG2 VAL C   4      11.065  42.745  27.698  0.00  0.00    +0.000 C 
ATOM     26  N   LYS C   5      13.450  41.559  23.709  0.00  0.00    +0.000 N 
ATOM     27  H   LYS C   5      12.537  41.177  23.474  0.00  0.00    +0.000 HD
ATOM     28  CA  LYS C   5      14.453  41.727  22.667  0.00  0.00    +0.000 C 
ATOM     29  C   LYS C   5      14.211  43.056  21.967  0.00  0.00    +0.000 C 
ATOM     30  O   LYS C   5      13.081  43.364  21.576  0.00  0.00    +0.000 OA
ATOM     31  CB  LYS C   5      14.396  40.560  21.675  0.00  0.00    +0.000 C 
ATOM     32  CG  LYS C   5      15.570  40.459  20.690  0.00  0.00    +0.000 C 
ATOM     33  CD  LYS C   5      15.430  39.212  19.801  0.00  0.00    +0.000 C 
ATOM     34  CE  LYS C   5      16.682  38.929  18.950  0.00  0.00    +0.000 C 
ATOM     35  NZ  LYS C   5      16.868  37.478  18.598  0.00  0.00    +0.000 N 
ATOM     36  HZ1 LYS C   5      17.264  36.947  19.367  0.00  0.00    +0.000 HD
ATOM     37  HZ2 LYS C   5      17.498  37.352  17.810  0.00  0.00    +0.000 HD
ATOM     38  HZ3 LYS C   5      15.997  37.033  18.333  0.00  0.00    +0.000 HD
ATOM     39  N   ARG C   6      15.258  43.857  21.836  0.00  0.00    +0.000 N 
ATOM     40  H   ARG C   6      16.151  43.553  22.204  0.00  0.00    +0.000 HD
ATOM     41  CA  ARG C   6      15.147  45.131  21.144  0.00  0.00    +0.000 C 
ATOM     42  C   ARG C   6      15.680  44.986  19.733  0.00  0.00    +0.000 C 
ATOM     43  O   ARG C   6      16.798  44.494  19.528  0.00  0.00    +0.000 OA
ATOM     44  CB  ARG C   6      15.893  46.246  21.860  0.00  0.00    +0.000 C 
ATOM     45  CG  ARG C   6      15.537  47.609  21.299  0.00  0.00    +0.000 C 
ATOM     46  CD  ARG C   6      16.290  48.692  21.978  0.00  0.00    +0.000 C 
ATOM     47  NE  ARG C   6      17.726  48.481  21.884  0.00  0.00    +0.000 N 
ATOM     48  HE  ARG C   6      18.056  47.694  21.351  0.00  0.00    +0.000 HD
ATOM     49  CZ  ARG C   6      18.627  49.306  22.398  0.00  0.00    +0.000 C 
ATOM     50  NH1 ARG C   6      19.925  49.097  22.238  0.00  0.00    +0.000 N 
ATOM     51 HH11 ARG C   6      20.592  49.691  22.710  0.00  0.00    +0.000 HD
ATOM     52 HH12 ARG C   6      20.247  48.338  21.645  0.00  0.00    +0.000 HD
ATOM     53  NH2 ARG C   6      18.212  50.370  23.082  0.00  0.00    +0.000 N 
ATOM     54 HH21 ARG C   6      17.227  50.517  23.213  0.00  0.00    +0.000 HD
ATOM     55 HH22 ARG C   6      18.850  51.008  23.522  0.00  0.00    +0.000 HD
ATOM     56  N   ILE C   7      14.870  45.419  18.773  0.00  0.00    +0.000 N 
ATOM     57  H   ILE C   7      13.986  45.857  19.025  0.00  0.00    +0.000 HD
ATOM     58  CA  ILE C   7      15.132  45.210  17.360  0.00  0.00    +0.000 C 
ATOM     59  C   ILE C   7      14.915  46.549  16.673  0.00  0.00    +0.000 C 
ATOM     60  O   ILE C   7      14.132  47.383  17.138  0.00  0.00    +0.000 OA
ATOM     61  CB  ILE C   7      14.234  44.073  16.781  0.00  0.00    +0.000 C 
ATOM     62  CG1 ILE C   7      14.853  43.484  15.512  0.00  0.00    +0.000 C 
ATOM     63  CG2 ILE C   7      12.783  44.527  16.562  0.00  0.00    +0.000 C 
ATOM     64  CD1 ILE C   7      16.252  42.927  15.731  0.00  0.00    +0.000 C 
ATOM     65  N   LEU C   8      15.665  46.784  15.600  0.00  0.00    +0.000 N 
ATOM     66  H   LEU C   8      16.276  46.066  15.248  0.00  0.00    +0.000 HD
ATOM     67  CA  LEU C   8      15.449  47.985  14.816  0.00  0.00    +0.000 C 
ATOM     68  C   LEU C   8      14.020  47.998  14.270  0.00  0.00    +0.000 C 
ATOM     69  O   LEU C   8      13.398  46.943  14.123  0.00  0.00    +0.000 OA
ATOM     70  CB  LEU C   8      16.466  48.066  13.677  0.00  0.00    +0.000 C 
ATOM     71  CG  LEU C   8      17.828  48.657  14.063  0.00  0.00    +0.000 C 
ATOM     72  CD1 LEU C   8      17.629  49.929  14.892  0.00  0.00    +0.000 C 
ATOM     73  CD2 LEU C   8      18.702  47.643  14.791  0.00  0.00    +0.000 C 
ATOM     74  N   NME C   9      13.470  49.181  13.981  0.00  0.00    +0.000 N 
ATOM     75  H   NME C   9      13.984  50.029  14.157  0.00  0.00    +0.000 HD
ATOM     76  C   NME C   9      12.103  49.247  13.438  0.00  0.00    +0.000 C 
TER 
REMARK  Name = /home/xianyang/aimnet2_score_pipelines/work/L1234-fixed-receptor-eint-20260921/L2/O75460/prepared.pdb
REMARK                            x       y       z     vdW  Elec       q    Type
REMARK                         _______ _______ _______ _____ _____    ______ ____
ATOM      1  CH3 ACE D   1      14.532  44.869  10.418  0.00  0.00    +0.000 C 
ATOM      2  C   ACE D   1      13.839  43.840   9.531  0.00  0.00    +0.000 C 
ATOM      3  O   ACE D   1      14.283  42.689   9.458  0.00  0.00    +0.000 OA
ATOM      4  N   PHE D   2      12.771  44.254   8.843  0.00  0.00    +0.000 N 
ATOM      5  H   PHE D   2      12.522  45.227   8.900  0.00  0.00    +0.000 HD
ATOM      6  CA  PHE D   2      11.917  43.355   8.056  0.00  0.00    +0.000 C 
ATOM      7  C   PHE D   2      11.604  42.086   8.842  0.00  0.00    +0.000 C 
ATOM      8  O   PHE D   2      11.776  40.962   8.366  0.00  0.00    +0.000 OA
ATOM      9  CB  PHE D   2      12.544  43.020   6.695  0.00  0.00    +0.000 C 
ATOM     10  CG  PHE D   2      13.042  44.220   5.932  0.00  0.00    +0.000 A 
ATOM     11  CD1 PHE D   2      14.175  44.131   5.143  0.00  0.00    +0.000 A 
ATOM     12  CD2 PHE D   2      12.364  45.432   5.984  0.00  0.00    +0.000 A 
ATOM     13  CE1 PHE D   2      14.642  45.238   4.431  0.00  0.00    +0.000 A 
ATOM     14  CE2 PHE D   2      12.824  46.548   5.274  0.00  0.00    +0.000 A 
ATOM     15  CZ  PHE D   2      13.965  46.449   4.498  0.00  0.00    +0.000 A 
ATOM     16  N   ALA D   3      11.144  42.281  10.076  0.00  0.00    +0.000 N 
ATOM     17  H   ALA D   3      11.068  43.222  10.422  0.00  0.00    +0.000 HD
ATOM     18  CA  ALA D   3      10.946  41.196  11.025  0.00  0.00    +0.000 C 
ATOM     19  C   ALA D   3       9.474  40.912  11.308  0.00  0.00    +0.000 C 
ATOM     20  O   ALA D   3       9.167  40.032  12.118  0.00  0.00    +0.000 OA
ATOM     21  CB  ALA D   3      11.677  41.512  12.330  0.00  0.00    +0.000 C 
ATOM     22  N   ASP D   4       8.554  41.638  10.671  0.00  0.00    +0.000 N 
ATOM     23  H   ASP D   4       8.836  42.453  10.154  0.00  0.00    +0.000 HD
ATOM     24  CA  ASP D   4       7.139  41.423  10.946  0.00  0.00    +0.000 C 
ATOM     25  C   ASP D   4       6.680  40.060  10.446  0.00  0.00    +0.000 C 
ATOM     26  O   ASP D   4       5.903  39.381  11.124  0.00  0.00    +0.000 OA
ATOM     27  CB  ASP D   4       6.297  42.528  10.310  0.00  0.00    +0.000 C 
ATOM     28  CG  ASP D   4       6.342  43.826  11.096  0.00  0.00    +0.000 C 
ATOM     29  OD1 ASP D   4       7.360  44.100  11.769  0.00  0.00    +0.000 OA
ATOM     30  OD2 ASP D   4       5.347  44.576  11.040  0.00  0.00    +0.000 OA
ATOM     31  N   ARG D   5       7.119  39.655   9.249  0.00  0.00    +0.000 N 
ATOM     32  H   ARG D   5       7.818  40.202   8.765  0.00  0.00    +0.000 HD
ATOM     33  CA  ARG D   5       6.691  38.362   8.739  0.00  0.00    +0.000 C 
ATOM     34  C   ARG D   5       7.076  37.243   9.684  0.00  0.00    +0.000 C 
ATOM     35  O   ARG D   5       6.336  36.263   9.828  0.00  0.00    +0.000 OA
ATOM     36  CB  ARG D   5       7.279  38.084   7.366  0.00  0.00    +0.000 C 
ATOM     37  CG  ARG D   5       6.527  36.969   6.673  0.00  0.00    +0.000 C 
ATOM     38  CD  ARG D   5       6.760  37.001   5.211  0.00  0.00    +0.000 C 
ATOM     39  NE  ARG D   5       8.177  37.152   4.920  0.00  0.00    +0.000 N 
ATOM     40  HE  ARG D   5       8.846  36.893   5.647  0.00  0.00    +0.000 HD
ATOM     41  CZ  ARG D   5       8.649  37.617   3.773  0.00  0.00    +0.000 C 
ATOM     42  NH1 ARG D   5       7.838  38.016   2.803  0.00  0.00    +0.000 N 
ATOM     43 HH11 ARG D   5       8.213  38.334   1.929  0.00  0.00    +0.000 HD
ATOM     44 HH12 ARG D   5       6.848  37.958   2.938  0.00  0.00    +0.000 HD
ATOM     45  NH2 ARG D   5       9.966  37.689   3.594  0.00  0.00    +0.000 N 
ATOM     46 HH21 ARG D   5      10.366  38.200   2.823  0.00  0.00    +0.000 HD
ATOM     47 HH22 ARG D   5      10.564  37.394   4.359  0.00  0.00    +0.000 HD
ATOM     48  N   GLU D   6       8.217  37.374  10.344  0.00  0.00    +0.000 N 
ATOM     49  H   GLU D   6       8.855  38.127  10.107  0.00  0.00    +0.000 HD
ATOM     50  CA  GLU D   6       8.689  36.295  11.188  0.00  0.00    +0.000 C 
ATOM     51  C   GLU D   6       8.122  36.385  12.591  0.00  0.00    +0.000 C 
ATOM     52  O   GLU D   6       7.932  35.347  13.232  0.00  0.00    +0.000 OA
ATOM     53  CB  GLU D   6      10.222  36.269  11.195  0.00  0.00    +0.000 C 
ATOM     54  CG  GLU D   6      10.819  35.774   9.852  0.00  0.00    +0.000 C 
ATOM     55  CD  GLU D   6      10.719  36.813   8.725  0.00  0.00    +0.000 C 
ATOM     56  OE1 GLU D   6      10.396  36.442   7.564  0.00  0.00    +0.000 OA
ATOM     57  OE2 GLU D   6      10.967  38.003   9.012  0.00  0.00    +0.000 OA
ATOM     58  N   VAL D   7       7.810  37.592  13.072  0.00  0.00    +0.000 N 
ATOM     59  H   VAL D   7       8.068  38.428  12.551  0.00  0.00    +0.000 HD
ATOM     60  CA  VAL D   7       7.048  37.699  14.314  0.00  0.00    +0.000 C 
ATOM     61  C   VAL D   7       5.652  37.114  14.125  0.00  0.00    +0.000 C 
ATOM     62  O   VAL D   7       5.113  36.481  15.038  0.00  0.00    +0.000 OA
ATOM     63  CB  VAL D   7       7.004  39.162  14.810  0.00  0.00    +0.000 C 
ATOM     64  CG1 VAL D   7       6.091  39.296  16.009  0.00  0.00    +0.000 C 
ATOM     65  CG2 VAL D   7       8.385  39.628  15.171  0.00  0.00    +0.000 C 
ATOM     66  N   GLN D   8       5.054  37.282  12.942  0.00  0.00    +0.000 N 
ATOM     67  H   GLN D   8       5.506  37.844  12.224  0.00  0.00    +0.000 HD
ATOM     68  CA  GLN D   8       3.757  36.664  12.684  0.00  0.00    +0.000 C 
ATOM     69  C   GLN D   8       3.842  35.135  12.728  0.00  0.00    +0.000 C 
ATOM     70  O   GLN D   8       2.940  34.475  13.260  0.00  0.00    +0.000 OA
ATOM     71  CB  GLN D   8       3.206  37.141  11.340  0.00  0.00    +0.000 C 
ATOM     72  CG  GLN D   8       1.856  36.537  10.979  0.00  0.00    +0.000 C 
ATOM     73  CD  GLN D   8       0.782  36.808  12.032  0.00  0.00    +0.000 C 
ATOM     74  OE1 GLN D   8       0.785  37.852  12.701  0.00  0.00    +0.000 OA
ATOM     75  NE2 GLN D   8      -0.140  35.864  12.186  0.00  0.00    +0.000 N 
ATOM     76 HE21 GLN D   8      -0.865  36.001  12.868  0.00  0.00    +0.000 HD
ATOM     77 HE22 GLN D   8      -0.109  35.026  11.633  0.00  0.00    +0.000 HD
ATOM     78  N   LEU D   9       4.924  34.553  12.188  0.00  0.00    +0.000 N 
ATOM     79  H   LEU D   9       5.623  35.124  11.728  0.00  0.00    +0.000 HD
ATOM     80  CA  LEU D   9       5.120  33.108  12.287  0.00  0.00    +0.000 C 
ATOM     81  C   LEU D   9       5.261  32.655  13.744  0.00  0.00    +0.000 C 
ATOM     82  O   LEU D   9       4.715  31.613  14.130  0.00  0.00    +0.000 OA
ATOM     83  CB  LEU D   9       6.343  32.691  11.476  0.00  0.00    +0.000 C 
ATOM     84  CG  LEU D   9       6.263  32.980   9.985  0.00  0.00    +0.000 C 
ATOM     85  CD1 LEU D   9       7.509  32.481   9.291  0.00  0.00    +0.000 C 
ATOM     86  CD2 LEU D   9       5.021  32.348   9.375  0.00  0.00    +0.000 C 
ATOM     87  N   LEU D  10       5.986  33.421  14.571  0.00  0.00    +0.000 N 
ATOM     88  H   LEU D  10       6.489  34.224  14.209  0.00  0.00    +0.000 HD
ATOM     89  CA  LEU D  10       5.998  33.135  16.006  0.00  0.00    +0.000 C 
ATOM     90  C   LEU D  10       4.584  33.180  16.586  0.00  0.00    +0.000 C 
ATOM     91  O   LEU D  10       4.219  32.325  17.402  0.00  0.00    +0.000 OA
ATOM     92  CB  LEU D  10       6.943  34.094  16.752  0.00  0.00    +0.000 C 
ATOM     93  CG  LEU D  10       7.074  33.880  18.275  0.00  0.00    +0.000 C 
ATOM     94  CD1 LEU D  10       7.472  32.435  18.598  0.00  0.00    +0.000 C 
ATOM     95  CD2 LEU D  10       8.047  34.859  18.928  0.00  0.00    +0.000 C 
ATOM     96  N   ARG D  11       3.756  34.129  16.133  0.00  0.00    +0.000 N 
ATOM     97  H   ARG D  11       4.117  34.813  15.477  0.00  0.00    +0.000 HD
ATOM     98  CA  ARG D  11       2.376  34.216  16.613  0.00  0.00    +0.000 C 
ATOM     99  C   ARG D  11       1.592  32.946  16.307  0.00  0.00    +0.000 C 
ATOM    100  O   ARG D  11       0.834  32.459  17.151  0.00  0.00    +0.000 OA
ATOM    101  CB  ARG D  11       1.666  35.423  15.994  0.00  0.00    +0.000 C 
ATOM    102  CG  ARG D  11       2.034  36.737  16.615  0.00  0.00    +0.000 C 
ATOM    103  CD  ARG D  11       1.438  37.863  15.805  0.00  0.00    +0.000 C 
ATOM    104  NE  ARG D  11       1.819  39.168  16.328  0.00  0.00    +0.000 N 
ATOM    105  HE  ARG D  11       1.695  39.337  17.311  0.00  0.00    +0.000 HD
ATOM    106  CZ  ARG D  11       2.343  40.140  15.594  0.00  0.00    +0.000 C 
ATOM    107  NH1 ARG D  11       2.543  39.992  14.293  0.00  0.00    +0.000 N 
ATOM    108 HH11 ARG D  11       2.103  39.209  13.824  0.00  0.00    +0.000 HD
ATOM    109 HH12 ARG D  11       3.015  40.699  13.757  0.00  0.00    +0.000 HD
ATOM    110  NH2 ARG D  11       2.669  41.291  16.178  0.00  0.00    +0.000 N 
ATOM    111 HH21 ARG D  11       3.189  41.994  15.654  0.00  0.00    +0.000 HD
ATOM    112 HH22 ARG D  11       2.536  41.404  17.172  0.00  0.00    +0.000 HD
ATOM    113  N   NME D  12       1.746  32.399  15.097  0.00  0.00    +0.000 N 
ATOM    114  H   NME D  12       2.414  32.810  14.457  0.00  0.00    +0.000 HD
ATOM    115  C   NME D  12       0.947  31.237  14.709  0.00  0.00    +0.000 C 
TER 
REMARK  Name = /home/xianyang/aimnet2_score_pipelines/work/L1234-fixed-receptor-eint-20260921/L2/O75460/prepared.pdb
REMARK                            x       y       z     vdW  Elec       q    Type
REMARK                         _______ _______ _______ _____ _____    ______ ____
ATOM      1  CH3 ACE E   1       7.565  23.673  23.070  0.00  0.00    +0.000 C 
ATOM      2  C   ACE E   1       7.953  24.669  21.988  0.00  0.00    +0.000 C 
ATOM      3  O   ACE E   1       9.027  24.557  21.381  0.00  0.00    +0.000 OA
ATOM      4  N   VAL E   2       7.099  25.661  21.750  0.00  0.00    +0.000 N 
ATOM      5  H   VAL E   2       6.250  25.701  22.296  0.00  0.00    +0.000 HD
ATOM      6  CA  VAL E   2       7.480  26.878  21.047  0.00  0.00    +0.000 C 
ATOM      7  C   VAL E   2       7.357  28.020  22.042  0.00  0.00    +0.000 C 
ATOM      8  O   VAL E   2       6.316  28.165  22.693  0.00  0.00    +0.000 OA
ATOM      9  CB  VAL E   2       6.605  27.107  19.807  0.00  0.00    +0.000 C 
ATOM     10  CG1 VAL E   2       6.937  28.434  19.154  0.00  0.00    +0.000 C 
ATOM     11  CG2 VAL E   2       6.759  25.942  18.836  0.00  0.00    +0.000 C 
ATOM     12  N   ILE E   3       8.433  28.804  22.186  0.00  0.00    +0.000 N 
ATOM     13  H   ILE E   3       9.241  28.659  21.590  0.00  0.00    +0.000 HD
ATOM     14  CA  ILE E   3       8.475  29.890  23.164  0.00  0.00    +0.000 C 
ATOM     15  C   ILE E   3       7.211  30.739  23.072  0.00  0.00    +0.000 C 
ATOM     16  O   ILE E   3       6.813  31.200  21.995  0.00  0.00    +0.000 OA
ATOM     17  CB  ILE E   3       9.743  30.736  22.955  0.00  0.00    +0.000 C 
ATOM     18  CG1 ILE E   3       9.945  31.687  24.126  0.00  0.00    +0.000 C 
ATOM     19  CG2 ILE E   3       9.687  31.526  21.655  0.00  0.00    +0.000 C 
ATOM     20  CD1 ILE E   3      10.271  30.985  25.416  0.00  0.00    +0.000 C 
ATOM     21  N   ARG E   4       6.556  30.926  24.201  0.00  0.00    +0.000 N 
ATOM     22  H   ARG E   4       6.887  30.500  25.059  0.00  0.00    +0.000 HD
ATOM     23  CA  ARG E   4       5.351  31.735  24.208  0.00  0.00    +0.000 C 
ATOM     24  C   ARG E   4       5.693  33.216  24.007  0.00  0.00    +0.000 C 
ATOM     25  O   ARG E   4       6.581  33.757  24.670  0.00  0.00    +0.000 OA
ATOM     26  CB  ARG E   4       4.609  31.533  25.520  0.00  0.00    +0.000 C 
ATOM     27  CG  ARG E   4       3.400  32.424  25.692  0.00  0.00    +0.000 C 
ATOM     28  CD  ARG E   4       2.603  31.991  26.908  0.00  0.00    +0.000 C 
ATOM     29  NE  ARG E   4       1.540  32.942  27.191  0.00  0.00    +0.000 N 
ATOM     30  HE  ARG E   4       1.589  33.835  26.724  0.00  0.00    +0.000 HD
ATOM     31  CZ  ARG E   4       0.552  32.741  28.050  0.00  0.00    +0.000 C 
ATOM     32  NH1 ARG E   4      -0.394  33.649  28.236  0.00  0.00    +0.000 N 
ATOM     33 HH11 ARG E   4      -1.140  33.472  28.884  0.00  0.00    +0.000 HD
ATOM     34 HH12 ARG E   4      -0.395  34.488  27.681  0.00  0.00    +0.000 HD
ATOM     35  NH2 ARG E   4       0.523  31.609  28.754  0.00  0.00    +0.000 N 
ATOM     36 HH21 ARG E   4       1.276  30.952  28.635  0.00  0.00    +0.000 HD
ATOM     37 HH22 ARG E   4      -0.203  31.434  29.422  0.00  0.00    +0.000 HD
ATOM     38  N   TYR E   5       4.976  33.871  23.097  0.00  0.00    +0.000 N 
ATOM     39  H   TYR E   5       4.282  33.360  22.574  0.00  0.00    +0.000 HD
ATOM     40  CA  TYR E   5       5.215  35.258  22.724  0.00  0.00    +0.000 C 
ATOM     41  C   TYR E   5       4.065  36.131  23.243  0.00  0.00    +0.000 C 
ATOM     42  O   TYR E   5       2.887  35.818  23.029  0.00  0.00    +0.000 OA
ATOM     43  CB  TYR E   5       5.369  35.375  21.198  0.00  0.00    +0.000 C 
ATOM     44  CG  TYR E   5       5.026  36.746  20.671  0.00  0.00    +0.000 A 
ATOM     45  CD1 TYR E   5       5.908  37.809  20.822  0.00  0.00    +0.000 A 
ATOM     46  CD2 TYR E   5       3.807  36.987  20.050  0.00  0.00    +0.000 A 
ATOM     47  CE1 TYR E   5       5.588  39.068  20.356  0.00  0.00    +0.000 A 
ATOM     48  CE2 TYR E   5       3.474  38.246  19.577  0.00  0.00    +0.000 A 
ATOM     49  CZ  TYR E   5       4.371  39.284  19.731  0.00  0.00    +0.000 A 
ATOM     50  OH  TYR E   5       4.052  40.547  19.277  0.00  0.00    +0.000 OA
ATOM     51  HH  TYR E   5       4.702  41.188  19.566  0.00  0.00    +0.000 HD
ATOM     52  N   PHE E   6       4.400  37.222  23.924  0.00  0.00    +0.000 N 
ATOM     53  H   PHE E   6       5.374  37.482  24.029  0.00  0.00    +0.000 HD
ATOM     54  CA  PHE E   6       3.384  37.970  24.655  0.00  0.00    +0.000 C 
ATOM     55  C   PHE E   6       2.920  39.240  23.949  0.00  0.00    +0.000 C 
ATOM     56  O   PHE E   6       1.716  39.517  23.908  0.00  0.00    +0.000 OA
ATOM     57  CB  PHE E   6       3.896  38.327  26.051  0.00  0.00    +0.000 C 
ATOM     58  CG  PHE E   6       3.821  37.205  27.005  0.00  0.00    +0.000 A 
ATOM     59  CD1 PHE E   6       2.599  36.841  27.559  0.00  0.00    +0.000 A 
ATOM     60  CD2 PHE E   6       4.970  36.500  27.358  0.00  0.00    +0.000 A 
ATOM     61  CE1 PHE E   6       2.514  35.783  28.443  0.00  0.00    +0.000 A 
ATOM     62  CE2 PHE E   6       4.901  35.460  28.258  0.00  0.00    +0.000 A 
ATOM     63  CZ  PHE E   6       3.664  35.088  28.793  0.00  0.00    +0.000 A 
ATOM     64  N   NME E   7       3.842  40.024  23.396  0.00  0.00    +0.000 N 
ATOM     65  H   NME E   7       4.812  39.742  23.423  0.00  0.00    +0.000 HD
ATOM     66  C   NME E   7       3.449  41.329  22.888  0.00  0.00    +0.000 C 
TER 
REMARK  Name = /home/xianyang/aimnet2_score_pipelines/work/L1234-fixed-receptor-eint-20260921/L2/O75460/prepared.pdb
REMARK                            x       y       z     vdW  Elec       q    Type
REMARK                         _______ _______ _______ _____ _____    ______ ____
ATOM      1  CH3 ACE F   1      10.512  47.713  18.560  0.00  0.00    +0.000 C 
ATOM      2  C   ACE F   1      11.000  46.812  19.682  0.00  0.00    +0.000 C 
ATOM      3  O   ACE F   1      12.182  46.474  19.752  0.00  0.00    +0.000 OA
ATOM      4  N   TYR F   2      10.093  46.432  20.573  0.00  0.00    +0.000 N 
ATOM      5  H   TYR F   2       9.136  46.724  20.461  0.00  0.00    +0.000 HD
ATOM      6  CA  TYR F   2      10.435  45.590  21.714  0.00  0.00    +0.000 C 
ATOM      7  C   TYR F   2       9.551  44.349  21.698  0.00  0.00    +0.000 C 
ATOM      8  O   TYR F   2       8.325  44.461  21.772  0.00  0.00    +0.000 OA
ATOM      9  CB  TYR F   2      10.264  46.369  23.021  0.00  0.00    +0.000 C 
ATOM     10  CG  TYR F   2      10.991  47.698  23.053  0.00  0.00    +0.000 A 
ATOM     11  CD1 TYR F   2      12.356  47.763  23.328  0.00  0.00    +0.000 A 
ATOM     12  CD2 TYR F   2      10.322  48.887  22.792  0.00  0.00    +0.000 A 
ATOM     13  CE1 TYR F   2      13.030  48.975  23.360  0.00  0.00    +0.000 A 
ATOM     14  CE2 TYR F   2      10.989  50.110  22.819  0.00  0.00    +0.000 A 
ATOM     15  CZ  TYR F   2      12.344  50.145  23.103  0.00  0.00    +0.000 A 
ATOM     16  OH  TYR F   2      13.008  51.352  23.128  0.00  0.00    +0.000 OA
ATOM     17  HH  TYR F   2      12.630  51.938  23.789  0.00  0.00    +0.000 HD
ATOM     18  N   ILE F   3      10.164  43.173  21.616  0.00  0.00    +0.000 N 
ATOM     19  H   ILE F   3      11.179  43.158  21.564  0.00  0.00    +0.000 HD
ATOM     20  CA  ILE F   3       9.434  41.907  21.582  0.00  0.00    +0.000 C 
ATOM     21  C   ILE F   3       9.528  41.243  22.943  0.00  0.00    +0.000 C 
ATOM     22  O   ILE F   3      10.621  40.876  23.378  0.00  0.00    +0.000 OA
ATOM     23  CB  ILE F   3       9.990  40.973  20.507  0.00  0.00    +0.000 C 
ATOM     24  CG1 ILE F   3       9.678  41.531  19.126  0.00  0.00    +0.000 C 
ATOM     25  CG2 ILE F   3       9.416  39.590  20.707  0.00  0.00    +0.000 C 
ATOM     26  CD1 ILE F   3      10.709  41.188  18.096  0.00  0.00    +0.000 C 
ATOM     27  N   ALA F   4       8.391  41.047  23.600  0.00  0.00    +0.000 N 
ATOM     28  H   ALA F   4       7.529  41.386  23.208  0.00  0.00    +0.000 HD
ATOM     29  CA  ALA F   4       8.353  40.403  24.907  0.00  0.00    +0.000 C 
ATOM     30  C   ALA F   4       7.951  38.935  24.784  0.00  0.00    +0.000 C 
ATOM     31  O   ALA F   4       6.908  38.621  24.201  0.00  0.00    +0.000 OA
ATOM     32  CB  ALA F   4       7.380  41.130  25.827  0.00  0.00    +0.000 C 
ATOM     33  N   ILE F   5       8.772  38.041  25.344  0.00  0.00    +0.000 N 
ATOM     34  H   ILE F   5       9.601  38.382  25.826  0.00  0.00    +0.000 HD
ATOM     35  CA  ILE F   5       8.525  36.597  25.344  0.00  0.00    +0.000 C 
ATOM     36  C   ILE F   5       8.682  36.071  26.769  0.00  0.00    +0.000 C 
ATOM     37  O   ILE F   5       9.085  36.787  27.680  0.00  0.00    +0.000 OA
ATOM     38  CB  ILE F   5       9.453  35.829  24.372  0.00  0.00    +0.000 C 
ATOM     39  CG1 ILE F   5      10.916  35.941  24.801  0.00  0.00    +0.000 C 
ATOM     40  CG2 ILE F   5       9.295  36.293  22.929  0.00  0.00    +0.000 C 
ATOM     41  CD1 ILE F   5      11.829  34.901  24.127  0.00  0.00    +0.000 C 
ATOM     42  N   GLU F   6       8.371  34.797  26.947  0.00  0.00    +0.000 N 
ATOM     43  H   GLU F   6       8.021  34.249  26.169  0.00  0.00    +0.000 HD
ATOM     44  CA  GLU F   6       8.445  34.169  28.264  0.00  0.00    +0.000 C 
ATOM     45  C   GLU F   6       9.866  34.187  28.827  0.00  0.00    +0.000 C 
ATOM     46  O   GLU F   6      10.812  33.744  28.171  0.00  0.00    +0.000 OA
ATOM     47  CB  GLU F   6       7.947  32.734  28.153  0.00  0.00    +0.000 C 
ATOM     48  CG  GLU F   6       8.208  31.878  29.374  0.00  0.00    +0.000 C 
ATOM     49  CD  GLU F   6       7.522  30.518  29.282  0.00  0.00    +0.000 C 
ATOM     50  OE1 GLU F   6       6.530  30.392  28.529  0.00  0.00    +0.000 OA
ATOM     51  OE2 GLU F   6       7.989  29.570  29.950  0.00  0.00    +0.000 OA
ATOM     52  N   LEU F   7      10.025  34.689  30.050  0.00  0.00    +0.000 N 
ATOM     53  H   LEU F   7       9.232  35.021  30.585  0.00  0.00    +0.000 HD
ATOM     54  CA  LEU F   7      11.343  34.658  30.673  0.00  0.00    +0.000 C 
ATOM     55  C   LEU F   7      11.710  33.230  31.081  0.00  0.00    +0.000 C 
ATOM     56  O   LEU F   7      10.923  32.540  31.731  0.00  0.00    +0.000 OA
ATOM     57  CB  LEU F   7      11.386  35.584  31.883  0.00  0.00    +0.000 C 
ATOM     58  CG  LEU F   7      12.732  35.680  32.614  0.00  0.00    +0.000 C 
ATOM     59  CD1 LEU F   7      13.862  35.990  31.650  0.00  0.00    +0.000 C 
ATOM     60  CD2 LEU F   7      12.680  36.734  33.720  0.00  0.00    +0.000 C 
ATOM     61  N   CYS F   8      12.920  32.804  30.723  0.00  0.00    +0.000 N 
ATOM     62  H   CYS F   8      13.506  33.428  30.195  0.00  0.00    +0.000 HD
ATOM     63  CA  CYS F   8      13.374  31.425  30.873  0.00  0.00    +0.000 C 
ATOM     64  C   CYS F   8      14.601  31.321  31.772  0.00  0.00    +0.000 C 
ATOM     65  O   CYS F   8      15.290  32.304  32.054  0.00  0.00    +0.000 OA
ATOM     66  CB  CYS F   8      13.698  30.801  29.508  0.00  0.00    +0.000 C 
ATOM     67  SG  CYS F   8      12.232  30.595  28.471  0.00  0.00    +0.000 S 
ATOM     68  HG  CYS F   8      11.310  30.507  29.444  0.00  0.00    +0.000 HD
ATOM     69  N   ALA F   9      14.875  30.085  32.197  0.00  0.00    +0.000 N 
ATOM     70  H   ALA F   9      14.340  29.305  31.833  0.00  0.00    +0.000 HD
ATOM     71  CA  ALA F   9      15.967  29.810  33.125  0.00  0.00    +0.000 C 
ATOM     72  C   ALA F   9      17.322  29.808  32.418  0.00  0.00    +0.000 C 
ATOM     73  O   ALA F   9      18.283  30.424  32.893  0.00  0.00    +0.000 OA
ATOM     74  CB  ALA F   9      15.728  28.468  33.816  0.00  0.00    +0.000 C 
ATOM     75  N   ALA F  10      17.421  29.114  31.290  0.00  0.00    +0.000 N 
ATOM     76  H   ALA F  10      16.606  28.669  30.892  0.00  0.00    +0.000 HD
ATOM     77  CA  ALA F  10      18.688  29.020  30.583  0.00  0.00    +0.000 C 
ATOM     78  C   ALA F  10      18.429  28.712  29.121  0.00  0.00    +0.000 C 
ATOM     79  O   ALA F  10      17.332  28.292  28.740  0.00  0.00    +0.000 OA
ATOM     80  CB  ALA F  10      19.581  27.951  31.194  0.00  0.00    +0.000 C 
ATOM     81  N   THR F  11      19.443  28.962  28.296  0.00  0.00    +0.000 N 
ATOM     82  H   THR F  11      20.272  29.406  28.694  0.00  0.00    +0.000 HD
ATOM     83  CA  THR F  11      19.487  28.345  26.985  0.00  0.00    +0.000 C 
ATOM     84  C   THR F  11      19.911  26.886  27.143  0.00  0.00    +0.000 C 
ATOM     85  O   THR F  11      20.424  26.477  28.179  0.00  0.00    +0.000 OA
ATOM     86  CB  THR F  11      20.471  29.071  26.072  0.00  0.00    +0.000 C 
ATOM     87  OG1 THR F  11      21.809  28.845  26.553  0.00  0.00    +0.000 OA
ATOM     88  HG1 THR F  11      21.900  29.417  27.325  0.00  0.00    +0.000 HD
ATOM     89  CG2 THR F  11      20.181  30.583  26.041  0.00  0.00    +0.000 C 
ATOM     90  N   LEU F  12      19.698  26.082  26.107  0.00  0.00    +0.000 N 
ATOM     91  H   LEU F  12      19.189  26.403  25.289  0.00  0.00    +0.000 HD
ATOM     92  CA  LEU F  12      20.201  24.720  26.180  0.00  0.00    +0.000 C 
ATOM     93  C   LEU F  12      21.725  24.705  26.293  0.00  0.00    +0.000 C 
ATOM     94  O   LEU F  12      22.300  23.847  26.982  0.00  0.00    +0.000 OA
ATOM     95  CB  LEU F  12      19.717  23.928  24.967  0.00  0.00    +0.000 C 
ATOM     96  CG  LEU F  12      20.040  22.438  25.010  0.00  0.00    +0.000 C 
ATOM     97  CD1 LEU F  12      19.413  21.780  26.212  0.00  0.00    +0.000 C 
ATOM     98  CD2 LEU F  12      19.560  21.779  23.752  0.00  0.00    +0.000 C 
ATOM     99  N   GLN F  13      22.390  25.665  25.653  0.00  0.00    +0.000 N 
ATOM    100  H   GLN F  13      21.868  26.364  25.142  0.00  0.00    +0.000 HD
ATOM    101  CA  GLN F  13      23.842  25.751  25.739  0.00  0.00    +0.000 C 
ATOM    102  C   GLN F  13      24.295  25.886  27.189  0.00  0.00    +0.000 C 
ATOM    103  O   GLN F  13      25.112  25.094  27.674  0.00  0.00    +0.000 OA
ATOM    104  CB  GLN F  13      24.340  26.930  24.902  0.00  0.00    +0.000 C 
ATOM    105  CG  GLN F  13      25.801  27.231  25.125  0.00  0.00    +0.000 C 
ATOM    106  CD  GLN F  13      26.419  28.085  24.040  0.00  0.00    +0.000 C 
ATOM    107  OE1 GLN F  13      25.729  28.644  23.176  0.00  0.00    +0.000 OA
ATOM    108  NE2 GLN F  13      27.734  28.217  24.099  0.00  0.00    +0.000 N 
ATOM    109 HE21 GLN F  13      28.260  27.813  24.852  0.00  0.00    +0.000 HD
ATOM    110 HE22 GLN F  13      28.166  28.781  23.388  0.00  0.00    +0.000 HD
ATOM    111  N   GLU F  14      23.767  26.894  27.895  0.00  0.00    +0.000 N 
ATOM    112  H   GLU F  14      23.073  27.492  27.461  0.00  0.00    +0.000 HD
ATOM    113  CA  GLU F  14      24.078  27.079  29.307  0.00  0.00    +0.000 C 
ATOM    114  C   GLU F  14      23.786  25.820  30.098  0.00  0.00    +0.000 C 
ATOM    115  O   GLU F  14      24.572  25.420  30.965  0.00  0.00    +0.000 OA
ATOM    116  CB  GLU F  14      23.274  28.253  29.879  0.00  0.00    +0.000 C 
ATOM    117  CG  GLU F  14      23.595  29.617  29.258  0.00  0.00    +0.000 C 
ATOM    118  CD  GLU F  14      22.634  30.726  29.701  0.00  0.00    +0.000 C 
ATOM    119  OE1 GLU F  14      23.106  31.823  30.077  0.00  0.00    +0.000 OA
ATOM    120  OE2 GLU F  14      21.407  30.507  29.656  0.00  0.00    +0.000 OA
ATOM    121  N   TYR F  15      22.648  25.192  29.821  0.00  0.00    +0.000 N 
ATOM    122  H   TYR F  15      22.027  25.575  29.119  0.00  0.00    +0.000 HD
ATOM    123  CA  TYR F  15      22.265  23.984  30.535  0.00  0.00    +0.000 C 
ATOM    124  C   TYR F  15      23.312  22.894  30.356  0.00  0.00    +0.000 C 
ATOM    125  O   TYR F  15      23.758  22.275  31.331  0.00  0.00    +0.000 OA
ATOM    126  CB  TYR F  15      20.890  23.539  30.036  0.00  0.00    +0.000 C 
ATOM    127  CG  TYR F  15      20.278  22.296  30.674  0.00  0.00    +0.000 A 
ATOM    128  CD1 TYR F  15      20.712  21.019  30.320  0.00  0.00    +0.000 A 
ATOM    129  CD2 TYR F  15      19.233  22.403  31.592  0.00  0.00    +0.000 A 
ATOM    130  CE1 TYR F  15      20.145  19.891  30.875  0.00  0.00    +0.000 A 
ATOM    131  CE2 TYR F  15      18.662  21.271  32.163  0.00  0.00    +0.000 A 
ATOM    132  CZ  TYR F  15      19.119  20.022  31.787  0.00  0.00    +0.000 A 
ATOM    133  OH  TYR F  15      18.562  18.890  32.322  0.00  0.00    +0.000 OA
ATOM    134  HH  TYR F  15      19.022  18.103  32.040  0.00  0.00    +0.000 HD
ATOM    135  N   NME F  16      23.731  22.652  29.114  0.00  0.00    +0.000 N 
ATOM    136  H   NME F  16      23.401  23.225  28.344  0.00  0.00    +0.000 HD
ATOM    137  C   NME F  16      24.752  21.636  28.912  0.00  0.00    +0.000 C 
TER 
REMARK  Name = /home/xianyang/aimnet2_score_pipelines/work/L1234-fixed-receptor-eint-20260921/L2/O75460/prepared.pdb
REMARK                            x       y       z     vdW  Elec       q    Type
REMARK                         _______ _______ _______ _____ _____    ______ ____
ATOM      1  CH3 ACE G   1      21.237  25.234  17.806  0.00  0.00    +0.000 C 
ATOM      2  C   ACE G   1      20.991  25.357  19.308  0.00  0.00    +0.000 C 
ATOM      3  O   ACE G   1      19.958  25.911  19.715  0.00  0.00    +0.000 OA
ATOM      4  N   PRO G   2      21.906  24.890  20.166  0.00  0.00    +0.000 N 
ATOM      5  CA  PRO G   2      21.622  24.927  21.614  0.00  0.00    +0.000 C 
ATOM      6  C   PRO G   2      21.339  26.319  22.136  0.00  0.00    +0.000 C 
ATOM      7  O   PRO G   2      20.526  26.466  23.059  0.00  0.00    +0.000 OA
ATOM      8  CB  PRO G   2      22.904  24.359  22.240  0.00  0.00    +0.000 C 
ATOM      9  CG  PRO G   2      23.644  23.721  21.107  0.00  0.00    +0.000 C 
ATOM     10  CD  PRO G   2      23.305  24.524  19.909  0.00  0.00    +0.000 C 
ATOM     11  N   HIS G   3      21.992  27.349  21.577  0.00  0.00    +0.000 N 
ATOM     12  H   HIS G   3      22.667  27.188  20.847  0.00  0.00    +0.000 HD
ATOM     13  CA  HIS G   3      21.735  28.713  22.029  0.00  0.00    +0.000 C 
ATOM     14  C   HIS G   3      20.280  29.126  21.789  0.00  0.00    +0.000 C 
ATOM     15  O   HIS G   3      19.736  29.932  22.548  0.00  0.00    +0.000 OA
ATOM     16  CB  HIS G   3      22.699  29.679  21.339  0.00  0.00    +0.000 C 
ATOM     17  CG  HIS G   3      22.448  31.121  21.654  0.00  0.00    +0.000 A 
ATOM     18  ND1 HIS G   3      22.872  31.713  22.824  0.00  0.00    +0.000 N 
ATOM     19  HD1 HIS G   3      23.364  31.246  23.569  0.00  0.00    +0.000 HD
ATOM     20  CD2 HIS G   3      21.828  32.095  20.944  0.00  0.00    +0.000 A 
ATOM     21  CE1 HIS G   3      22.524  32.990  22.823  0.00  0.00    +0.000 A 
ATOM     22  NE2 HIS G   3      21.887  33.246  21.694  0.00  0.00    +0.000 NA
ATOM     23  N   ASN G   4      19.620  28.553  20.785  0.00  0.00    +0.000 N 
ATOM     24  H   ASN G   4      20.073  27.828  20.248  0.00  0.00    +0.000 HD
ATOM     25  CA  ASN G   4      18.264  28.941  20.393  0.00  0.00    +0.000 C 
ATOM     26  C   ASN G   4      17.178  28.155  21.105  0.00  0.00    +0.000 C 
ATOM     27  O   ASN G   4      15.997  28.404  20.855  0.00  0.00    +0.000 OA
ATOM     28  CB  ASN G   4      18.048  28.733  18.882  0.00  0.00    +0.000 C 
ATOM     29  CG  ASN G   4      18.658  29.836  18.042  0.00  0.00    +0.000 C 
ATOM     30  OD1 ASN G   4      19.150  30.848  18.562  0.00  0.00    +0.000 OA
ATOM     31  ND2 ASN G   4      18.649  29.639  16.730  0.00  0.00    +0.000 N 
ATOM     32 HD21 ASN G   4      18.116  28.894  16.329  0.00  0.00    +0.000 HD
ATOM     33 HD22 ASN G   4      18.880  30.472  16.207  0.00  0.00    +0.000 HD
ATOM     34  N   ILE G   5      17.532  27.176  21.922  0.00  0.00    +0.000 N 
ATOM     35  H   ILE G   5      18.513  27.034  22.123  0.00  0.00    +0.000 HD
ATOM     36  CA  ILE G   5      16.548  26.347  22.599  0.00  0.00    +0.000 C 
ATOM     37  C   ILE G   5      16.499  26.797  24.045  0.00  0.00    +0.000 C 
ATOM     38  O   ILE G   5      17.510  26.718  24.754  0.00  0.00    +0.000 OA
ATOM     39  CB  ILE G   5      16.908  24.863  22.469  0.00  0.00    +0.000 C 
ATOM     40  CG1 ILE G   5      16.750  24.451  21.007  0.00  0.00    +0.000 C 
ATOM     41  CG2 ILE G   5      16.058  24.027  23.388  0.00  0.00    +0.000 C 
ATOM     42  CD1 ILE G   5      17.648  23.278  20.563  0.00  0.00    +0.000 C 
ATOM     43  N   LEU G   6      15.348  27.328  24.465  0.00  0.00    +0.000 N 
ATOM     44  H   LEU G   6      14.544  27.324  23.844  0.00  0.00    +0.000 HD
ATOM     45  CA  LEU G   6      15.198  27.868  25.811  0.00  0.00    +0.000 C 
ATOM     46  C   LEU G   6      14.660  26.812  26.776  0.00  0.00    +0.000 C 
ATOM     47  O   LEU G   6      13.879  25.938  26.404  0.00  0.00    +0.000 OA
ATOM     48  CB  LEU G   6      14.263  29.064  25.801  0.00  0.00    +0.000 C 
ATOM     49  CG  LEU G   6      14.736  30.155  24.855  0.00  0.00    +0.000 C 
ATOM     50  CD1 LEU G   6      13.697  31.257  24.796  0.00  0.00    +0.000 C 
ATOM     51  CD2 LEU G   6      16.066  30.733  25.323  0.00  0.00    +0.000 C 
ATOM     52  N   ILE G   7      15.100  26.905  28.025  0.00  0.00    +0.000 N 
ATOM     53  H   ILE G   7      15.775  27.629  28.244  0.00  0.00    +0.000 HD
ATOM     54  CA  ILE G   7      14.688  26.020  29.104  0.00  0.00    +0.000 C 
ATOM     55  C   ILE G   7      13.841  26.835  30.066  0.00  0.00    +0.000 C 
ATOM     56  O   ILE G   7      14.279  27.888  30.537  0.00  0.00    +0.000 OA
ATOM     57  CB  ILE G   7      15.907  25.421  29.826  0.00  0.00    +0.000 C 
ATOM     58  CG1 ILE G   7      16.875  24.791  28.822  0.00  0.00    +0.000 C 
ATOM     59  CG2 ILE G   7      15.476  24.383  30.843  0.00  0.00    +0.000 C 
ATOM     60  CD1 ILE G   7      16.236  23.788  27.934  0.00  0.00    +0.000 C 
ATOM     61  N   NME G   8      12.642  26.345  30.372  0.00  0.00    +0.000 N 
ATOM     62  H   NME G   8      12.326  25.492  29.936  0.00  0.00    +0.000 HD
ATOM     63  C   NME G   8      11.706  27.123  31.169  0.00  0.00    +0.000 C 
TER 
REMARK  Name = /home/xianyang/aimnet2_score_pipelines/work/L1234-fixed-receptor-eint-20260921/L2/O75460/prepared.pdb
REMARK                            x       y       z     vdW  Elec       q    Type
REMARK                         _______ _______ _______ _____ _____    ______ ____
ATOM      1  CH3 ACE H   1      12.473  23.162  26.313  0.00  0.00    +0.000 C 
ATOM      2  C   ACE H   1      11.505  23.801  25.319  0.00  0.00    +0.000 C 
ATOM      3  O   ACE H   1      10.422  23.269  25.066  0.00  0.00    +0.000 OA
ATOM      4  N   MET H   2      11.888  24.949  24.759  0.00  0.00    +0.000 N 
ATOM      5  H   MET H   2      12.759  25.376  25.056  0.00  0.00    +0.000 HD
ATOM      6  CA  MET H   2      11.043  25.636  23.780  0.00  0.00    +0.000 C 
ATOM      7  C   MET H   2      11.905  26.171  22.652  0.00  0.00    +0.000 C 
ATOM      8  O   MET H   2      12.956  26.765  22.903  0.00  0.00    +0.000 OA
ATOM      9  CB  MET H   2      10.249  26.782  24.413  0.00  0.00    +0.000 C 
ATOM     10  CG  MET H   2       9.557  26.405  25.702  0.00  0.00    +0.000 C 
ATOM     11  SD  MET H   2       8.617  27.723  26.454  0.00  0.00    +0.000 S 
ATOM     12  CE  MET H   2       9.780  28.097  27.730  0.00  0.00    +0.000 C 
ATOM     13  N   ILE H   3      11.477  25.918  21.414  0.00  0.00    +0.000 N 
ATOM     14  H   ILE H   3      10.625  25.382  21.282  0.00  0.00    +0.000 HD
ATOM     15  CA  ILE H   3      12.116  26.542  20.263  0.00  0.00    +0.000 C 
ATOM     16  C   ILE H   3      11.928  28.051  20.349  0.00  0.00    +0.000 C 
ATOM     17  O   ILE H   3      10.829  28.541  20.645  0.00  0.00    +0.000 OA
ATOM     18  CB  ILE H   3      11.491  26.026  18.956  0.00  0.00    +0.000 C 
ATOM     19  CG1 ILE H   3      11.418  24.498  18.934  0.00  0.00    +0.000 C 
ATOM     20  CG2 ILE H   3      12.186  26.627  17.753  0.00  0.00    +0.000 C 
ATOM     21  CD1 ILE H   3      12.611  23.869  18.516  0.00  0.00    +0.000 C 
ATOM     22  N   SER H   4      12.980  28.804  20.038  0.00  0.00    +0.000 N 
ATOM     23  H   SER H   4      13.857  28.377  19.764  0.00  0.00    +0.000 HD
ATOM     24  CA  SER H   4      12.838  30.249  19.889  0.00  0.00    +0.000 C 
ATOM     25  C   SER H   4      13.634  30.690  18.667  0.00  0.00    +0.000 C 
ATOM     26  O   SER H   4      14.225  29.870  17.960  0.00  0.00    +0.000 OA
ATOM     27  CB  SER H   4      13.314  30.977  21.148  0.00  0.00    +0.000 C 
ATOM     28  OG  SER H   4      14.729  30.916  21.184  0.00  0.00    +0.000 OA
ATOM     29  HG  SER H   4      15.040  30.012  20.997  0.00  0.00    +0.000 HD
ATOM     30  N   ASP H   5      13.674  32.006  18.452  0.00  0.00    +0.000 N 
ATOM     31  H   ASP H   5      13.242  32.596  19.139  0.00  0.00    +0.000 HD
ATOM     32  CA  ASP H   5      14.495  32.648  17.428  0.00  0.00    +0.000 C 
ATOM     33  C   ASP H   5      13.952  32.362  16.042  0.00  0.00    +0.000 C 
ATOM     34  O   ASP H   5      14.436  31.467  15.336  0.00  0.00    +0.000 OA
ATOM     35  CB  ASP H   5      15.968  32.229  17.507  0.00  0.00    +0.000 C 
ATOM     36  CG  ASP H   5      16.884  33.254  16.851  0.00  0.00    +0.000 C 
ATOM     37  OD1 ASP H   5      16.347  34.172  16.184  0.00  0.00    +0.000 OA
ATOM     38  OD2 ASP H   5      18.124  33.146  16.998  0.00  0.00    +0.000 OA
ATOM     39  N   PHE H   6      12.958  33.142  15.641  0.00  0.00    +0.000 N 
ATOM     40  H   PHE H   6      12.622  33.859  16.260  0.00  0.00    +0.000 HD
ATOM     41  CA  PHE H   6      12.254  32.918  14.393  0.00  0.00    +0.000 C 
ATOM     42  C   PHE H   6      12.783  33.787  13.265  0.00  0.00    +0.000 C 
ATOM     43  O   PHE H   6      12.114  33.921  12.234  0.00  0.00    +0.000 OA
ATOM     44  CB  PHE H   6      10.750  33.147  14.604  0.00  0.00    +0.000 C 
ATOM     45  CG  PHE H   6      10.059  31.961  15.164  0.00  0.00    +0.000 A 
ATOM     46  CD1 PHE H   6      10.514  31.370  16.342  0.00  0.00    +0.000 A 
ATOM     47  CD2 PHE H   6       8.987  31.391  14.495  0.00  0.00    +0.000 A 
ATOM     48  CE1 PHE H   6       9.908  30.229  16.851  0.00  0.00    +0.000 A 
ATOM     49  CE2 PHE H   6       8.369  30.245  14.999  0.00  0.00    +0.000 A 
ATOM     50  CZ  PHE H   6       8.844  29.654  16.177  0.00  0.00    +0.000 A 
ATOM     51  N   GLY H   7      13.971  34.374  13.436  0.00  0.00    +0.000 N 
ATOM     52  H   GLY H   7      14.516  34.180  14.270  0.00  0.00    +0.000 HD
ATOM     53  CA  GLY H   7      14.465  35.332  12.466  0.00  0.00    +0.000 C 
ATOM     54  C   GLY H   7      14.779  34.739  11.106  0.00  0.00    +0.000 C 
ATOM     55  O   GLY H   7      14.809  35.460  10.111  0.00  0.00    +0.000 OA
ATOM     56  N   LEU H   8      15.019  33.431  11.027  0.00  0.00    +0.000 N 
ATOM     57  H   LEU H   8      15.015  32.873  11.867  0.00  0.00    +0.000 HD
ATOM     58  CA  LEU H   8      15.279  32.813   9.732  0.00  0.00    +0.000 C 
ATOM     59  C   LEU H   8      14.139  31.920   9.269  0.00  0.00    +0.000 C 
ATOM     60  O   LEU H   8      14.244  31.305   8.200  0.00  0.00    +0.000 OA
ATOM     61  CB  LEU H   8      16.587  32.015   9.783  0.00  0.00    +0.000 C 
ATOM     62  CG  LEU H   8      17.791  32.909  10.087  0.00  0.00    +0.000 C 
ATOM     63  CD1 LEU H   8      19.099  32.129  10.088  0.00  0.00    +0.000 C 
ATOM     64  CD2 LEU H   8      17.824  34.050   9.088  0.00  0.00    +0.000 C 
ATOM     65  N   NME H   9      13.056  31.840  10.036  0.00  0.00    +0.000 N 
ATOM     66  H   NME H   9      12.950  32.488  10.807  0.00  0.00    +0.000 HD
ATOM     67  C   NME H   9      11.987  30.904   9.732  0.00  0.00    +0.000 C 
TER 
