REMARK  Name = /data/user_data/xianyang/t3-aimnet-affinity-balanced/L2/Q13224/pocket.pdb
REMARK                            x       y       z     vdW  Elec       q    Type
REMARK                         _______ _______ _______ _____ _____    ______ ____
ATOM      1  N   PRO A   1      28.926 -13.211 -36.078  0.00  0.00    +0.000 N 
ATOM      2  CA  PRO A   1      30.047 -12.618 -35.318  0.00  0.00    +0.000 C 
ATOM      3  C   PRO A   1      31.338 -13.454 -35.280  0.00  0.00    +0.000 C 
ATOM      4  O   PRO A   1      32.412 -12.911 -35.565  0.00  0.00    +0.000 OA
ATOM      5  CB  PRO A   1      29.464 -12.386 -33.917  0.00  0.00    +0.000 C 
ATOM      6  CG  PRO A   1      28.000 -12.371 -34.091  0.00  0.00    +0.000 C 
ATOM      7  CD  PRO A   1      27.698 -13.278 -35.257  0.00  0.00    +0.000 C 
ATOM      8  H   PRO A   1      29.183 -14.154 -36.369  0.00  0.00    +0.000 HD
ATOM      9  H   PRO A   1      28.740 -12.622 -36.890  0.00  0.00    +0.000 HD
TER 
REMARK  Name = /data/user_data/xianyang/t3-aimnet-affinity-balanced/L2/Q13224/pocket.pdb
REMARK                            x       y       z     vdW  Elec       q    Type
REMARK                         _______ _______ _______ _____ _____    ______ ____
ATOM      1  N   ILE B   1      34.984 -12.223 -36.737  0.00  0.00    +0.000 N 
ATOM      2  CA  ILE B   1      36.032 -12.043 -35.737  0.00  0.00    +0.000 C 
ATOM      3  C   ILE B   1      37.199 -12.957 -36.070  0.00  0.00    +0.000 C 
ATOM      4  O   ILE B   1      38.313 -12.465 -36.217  0.00  0.00    +0.000 OA
ATOM      5  CB  ILE B   1      35.528 -12.191 -34.262  0.00  0.00    +0.000 C 
ATOM      6  CG1 ILE B   1      34.562 -11.037 -33.874  0.00  0.00    +0.000 C 
ATOM      7  CG2 ILE B   1      36.723 -12.260 -33.282  0.00  0.00    +0.000 C 
ATOM      8  CD1 ILE B   1      33.801 -11.233 -32.565  0.00  0.00    +0.000 C 
ATOM      9  H   ILE B   1      35.382 -12.113 -37.670  0.00  0.00    +0.000 HD
ATOM     10  H   ILE B   1      34.254 -11.525 -36.594  0.00  0.00    +0.000 HD
ATOM     11  H   ILE B   1      34.584 -13.157 -36.646  0.00  0.00    +0.000 HD
TER 
REMARK  Name = /data/user_data/xianyang/t3-aimnet-affinity-balanced/L2/Q13224/pocket.pdb
REMARK                            x       y       z     vdW  Elec       q    Type
REMARK                         _______ _______ _______ _____ _____    ______ ____
ATOM      1  N   GLU C   1      23.017  -4.949 -41.626  0.00  0.00    +0.000 N 
ATOM      2  CA  GLU C   1      23.563  -3.774 -40.931  0.00  0.00    +0.000 C 
ATOM      3  C   GLU C   1      24.391  -4.125 -39.680  0.00  0.00    +0.000 C 
ATOM      4  O   GLU C   1      25.117  -3.256 -39.195  0.00  0.00    +0.000 OA
ATOM      5  CB  GLU C   1      22.456  -2.746 -40.606  0.00  0.00    +0.000 C 
ATOM      6  CG  GLU C   1      21.411  -3.169 -39.585  0.00  0.00    +0.000 C 
ATOM      7  CD  GLU C   1      20.521  -4.328 -39.968  0.00  0.00    +0.000 C 
ATOM      8  OE1 GLU C   1      20.198  -4.488 -41.170  0.00  0.00    +0.000 OA
ATOM      9  OE2 GLU C   1      20.144  -5.083 -39.045  0.00  0.00    +0.000 OA
ATOM     10  N   ALA C   2      24.255  -5.375 -39.153  0.00  0.00    +0.000 N 
ATOM     11  CA  ALA C   2      24.994  -5.902 -37.997  0.00  0.00    +0.000 C 
ATOM     12  C   ALA C   2      26.486  -6.047 -38.322  0.00  0.00    +0.000 C 
ATOM     13  O   ALA C   2      27.316  -5.937 -37.413  0.00  0.00    +0.000 OA
ATOM     14  CB  ALA C   2      24.433  -7.245 -37.582  0.00  0.00    +0.000 C 
ATOM     15  H   GLU C   1      22.483  -4.645 -42.440  0.00  0.00    +0.000 HD
ATOM     16  H   GLU C   1      22.407  -5.465 -40.993  0.00  0.00    +0.000 HD
ATOM     17  H   GLU C   1      23.783  -5.552 -41.927  0.00  0.00    +0.000 HD
ATOM     18  H   ALA C   2      23.606  -5.977 -39.584  0.00  0.00    +0.000 HD
TER 
REMARK  Name = /data/user_data/xianyang/t3-aimnet-affinity-balanced/L2/Q13224/pocket.pdb
REMARK                            x       y       z     vdW  Elec       q    Type
REMARK                         _______ _______ _______ _____ _____    ______ ____
ATOM      1  N   GLN D   1      28.452  -3.034 -37.146  0.00  0.00    +0.000 N 
ATOM      2  CA  GLN D   1      28.608  -3.127 -35.699  0.00  0.00    +0.000 C 
ATOM      3  C   GLN D   1      29.723  -4.086 -35.306  0.00  0.00    +0.000 C 
ATOM      4  O   GLN D   1      30.601  -3.685 -34.536  0.00  0.00    +0.000 OA
ATOM      5  CB  GLN D   1      27.286  -3.497 -35.058  0.00  0.00    +0.000 C 
ATOM      6  CG  GLN D   1      26.378  -2.303 -34.925  0.00  0.00    +0.000 C 
ATOM      7  CD  GLN D   1      24.935  -2.682 -35.037  0.00  0.00    +0.000 C 
ATOM      8  OE1 GLN D   1      24.405  -3.436 -34.219  0.00  0.00    +0.000 OA
ATOM      9  NE2 GLN D   1      24.266  -2.150 -36.052  0.00  0.00    +0.000 N 
ATOM     10  N   ILE D   2      29.739  -5.313 -35.890  0.00  0.00    +0.000 N 
ATOM     11  CA  ILE D   2      30.786  -6.331 -35.670  0.00  0.00    +0.000 C 
ATOM     12  C   ILE D   2      32.140  -5.726 -36.020  0.00  0.00    +0.000 C 
ATOM     13  O   ILE D   2      33.063  -5.809 -35.206  0.00  0.00    +0.000 OA
ATOM     14  CB  ILE D   2      30.516  -7.634 -36.484  0.00  0.00    +0.000 C 
ATOM     15  CG1 ILE D   2      29.246  -8.370 -35.985  0.00  0.00    +0.000 C 
ATOM     16  CG2 ILE D   2      31.733  -8.560 -36.458  0.00  0.00    +0.000 C 
ATOM     17  CD1 ILE D   2      28.685  -9.362 -36.935  0.00  0.00    +0.000 C 
ATOM     18  H   GLN D   1      29.346  -2.785 -37.569  0.00  0.00    +0.000 HD
ATOM     19  H   GLN D   1      27.760  -2.319 -37.368  0.00  0.00    +0.000 HD
ATOM     20  H   GLN D   1      28.141  -3.934 -37.513  0.00  0.00    +0.000 HD
ATOM     21  H   GLN D   1      24.725  -1.552 -36.685  0.00  0.00    +0.000 HD
ATOM     22  H   GLN D   1      23.310  -2.354 -36.172  0.00  0.00    +0.000 HD
ATOM     23  H   ILE D   2      29.002  -5.539 -36.502  0.00  0.00    +0.000 HD
TER 
REMARK  Name = /data/user_data/xianyang/t3-aimnet-affinity-balanced/L2/Q13224/pocket.pdb
REMARK                            x       y       z     vdW  Elec       q    Type
REMARK                         _______ _______ _______ _____ _____    ______ ____
ATOM      1  N   PHE E   1      33.418  -2.900 -33.518  0.00  0.00    +0.000 N 
ATOM      2  CA  PHE E   1      33.920  -3.596 -32.341  0.00  0.00    +0.000 C 
ATOM      3  C   PHE E   1      35.343  -4.112 -32.605  0.00  0.00    +0.000 C 
ATOM      4  O   PHE E   1      36.251  -3.763 -31.851  0.00  0.00    +0.000 OA
ATOM      5  CB  PHE E   1      32.965  -4.734 -31.994  0.00  0.00    +0.000 C 
ATOM      6  CG  PHE E   1      33.411  -5.651 -30.893  0.00  0.00    +0.000 A 
ATOM      7  CD2 PHE E   1      33.348  -5.245 -29.561  0.00  0.00    +0.000 A 
ATOM      8  CD1 PHE E   1      33.841  -6.943 -31.178  0.00  0.00    +0.000 A 
ATOM      9  CE2 PHE E   1      33.744  -6.100 -28.537  0.00  0.00    +0.000 A 
ATOM     10  CE1 PHE E   1      34.232  -7.802 -30.159  0.00  0.00    +0.000 A 
ATOM     11  CZ  PHE E   1      34.181  -7.375 -28.841  0.00  0.00    +0.000 A 
ATOM     12  H   PHE E   1      34.051  -2.137 -33.757  0.00  0.00    +0.000 HD
ATOM     13  H   PHE E   1      32.491  -2.524 -33.321  0.00  0.00    +0.000 HD
ATOM     14  H   PHE E   1      33.361  -3.552 -34.300  0.00  0.00    +0.000 HD
TER 
REMARK  Name = /data/user_data/xianyang/t3-aimnet-affinity-balanced/L2/Q13224/pocket.pdb
REMARK                            x       y       z     vdW  Elec       q    Type
REMARK                         _______ _______ _______ _____ _____    ______ ____
ATOM      1  N   THR F   1      12.298   2.890 -35.013  0.00  0.00    +0.000 N 
ATOM      2  CA  THR F   1      12.448   1.815 -34.034  0.00  0.00    +0.000 C 
ATOM      3  C   THR F   1      13.558   2.323 -33.112  0.00  0.00    +0.000 C 
ATOM      4  O   THR F   1      13.906   3.507 -33.186  0.00  0.00    +0.000 OA
ATOM      5  CB  THR F   1      12.775   0.489 -34.703  0.00  0.00    +0.000 C 
ATOM      6  OG1 THR F   1      14.038   0.594 -35.364  0.00  0.00    +0.000 OA
ATOM      7  CG2 THR F   1      11.675   0.028 -35.657  0.00  0.00    +0.000 C 
ATOM      8  N   TYR F   2      14.132   1.459 -32.267  0.00  0.00    +0.000 N 
ATOM      9  CA  TYR F   2      15.238   1.874 -31.403  0.00  0.00    +0.000 C 
ATOM     10  C   TYR F   2      16.569   1.704 -32.091  0.00  0.00    +0.000 C 
ATOM     11  O   TYR F   2      17.596   1.934 -31.466  0.00  0.00    +0.000 OA
ATOM     12  CB  TYR F   2      15.217   1.124 -30.078  0.00  0.00    +0.000 C 
ATOM     13  CG  TYR F   2      14.167   1.628 -29.116  0.00  0.00    +0.000 A 
ATOM     14  CD1 TYR F   2      12.830   1.256 -29.251  0.00  0.00    +0.000 A 
ATOM     15  CD2 TYR F   2      14.513   2.449 -28.047  0.00  0.00    +0.000 A 
ATOM     16  CE1 TYR F   2      11.872   1.669 -28.330  0.00  0.00    +0.000 A 
ATOM     17  CE2 TYR F   2      13.553   2.905 -27.147  0.00  0.00    +0.000 A 
ATOM     18  CZ  TYR F   2      12.238   2.496 -27.279  0.00  0.00    +0.000 A 
ATOM     19  OH  TYR F   2      11.314   2.909 -26.345  0.00  0.00    +0.000 OA
ATOM     20  N   PHE F   3      16.572   1.339 -33.386  0.00  0.00    +0.000 N 
ATOM     21  CA  PHE F   3      17.797   1.189 -34.158  0.00  0.00    +0.000 C 
ATOM     22  C   PHE F   3      18.656   2.452 -33.997  0.00  0.00    +0.000 C 
ATOM     23  O   PHE F   3      18.138   3.561 -34.161  0.00  0.00    +0.000 OA
ATOM     24  CB  PHE F   3      17.506   0.878 -35.633  0.00  0.00    +0.000 C 
ATOM     25  CG  PHE F   3      18.771   0.523 -36.374  0.00  0.00    +0.000 A 
ATOM     26  CD2 PHE F   3      19.448  -0.669 -36.102  0.00  0.00    +0.000 A 
ATOM     27  CD1 PHE F   3      19.337   1.414 -37.277  0.00  0.00    +0.000 A 
ATOM     28  CE2 PHE F   3      20.648  -0.974 -36.748  0.00  0.00    +0.000 A 
ATOM     29  CE1 PHE F   3      20.560   1.120 -37.892  0.00  0.00    +0.000 A 
ATOM     30  CZ  PHE F   3      21.186  -0.086 -37.651  0.00  0.00    +0.000 A 
ATOM     31  N   PRO F   4      19.928   2.303 -33.569  0.00  0.00    +0.000 N 
ATOM     32  CA  PRO F   4      20.767   3.486 -33.335  0.00  0.00    +0.000 C 
ATOM     33  C   PRO F   4      20.796   4.492 -34.483  0.00  0.00    +0.000 C 
ATOM     34  O   PRO F   4      20.938   4.115 -35.649  0.00  0.00    +0.000 OA
ATOM     35  CB  PRO F   4      22.133   2.892 -33.030  0.00  0.00    +0.000 C 
ATOM     36  CG  PRO F   4      21.831   1.525 -32.530  0.00  0.00    +0.000 C 
ATOM     37  CD  PRO F   4      20.672   1.057 -33.299  0.00  0.00    +0.000 C 
ATOM     38  H   THR F   1      11.569   2.641 -35.682  0.00  0.00    +0.000 HD
ATOM     39  H   THR F   1      13.180   3.026 -35.506  0.00  0.00    +0.000 HD
ATOM     40  H   THR F   1      12.040   3.753 -34.534  0.00  0.00    +0.000 HD
ATOM     41  H   THR F   1      13.987   1.276 -36.052  0.00  0.00    +0.000 HD
ATOM     42  H   TYR F   2      13.806   0.531 -32.226  0.00  0.00    +0.000 HD
ATOM     43  H   TYR F   2      10.419   2.641 -26.420  0.00  0.00    +0.000 HD
ATOM     44  H   PHE F   3      15.710   1.166 -33.830  0.00  0.00    +0.000 HD
TER 
REMARK  Name = /data/user_data/xianyang/t3-aimnet-affinity-balanced/L2/Q13224/pocket.pdb
REMARK                            x       y       z     vdW  Elec       q    Type
REMARK                         _______ _______ _______ _____ _____    ______ ____
ATOM      1  N   LEU G   1       8.901   2.517 -32.070  0.00  0.00    +0.000 N 
ATOM      2  CA  LEU G   1       8.432   1.140 -31.995  0.00  0.00    +0.000 C 
ATOM      3  C   LEU G   1       9.492   0.262 -31.374  0.00  0.00    +0.000 C 
ATOM      4  O   LEU G   1      10.677   0.372 -31.700  0.00  0.00    +0.000 OA
ATOM      5  CB  LEU G   1       7.987   0.604 -33.380  0.00  0.00    +0.000 C 
ATOM      6  CG  LEU G   1       7.233   1.532 -34.347  0.00  0.00    +0.000 C 
ATOM      7  CD1 LEU G   1       6.931   0.811 -35.590  0.00  0.00    +0.000 C 
ATOM      8  CD2 LEU G   1       5.917   2.031 -33.775  0.00  0.00    +0.000 C 
ATOM      9  H   LEU G   1       8.178   3.100 -32.491  0.00  0.00    +0.000 HD
ATOM     10  H   LEU G   1       9.745   2.558 -32.641  0.00  0.00    +0.000 HD
ATOM     11  H   LEU G   1       9.109   2.857 -31.131  0.00  0.00    +0.000 HD
TER 
REMARK  Name = /data/user_data/xianyang/t3-aimnet-affinity-balanced/L2/Q13224/pocket.pdb
REMARK                            x       y       z     vdW  Elec       q    Type
REMARK                         _______ _______ _______ _____ _____    ______ ____
ATOM      1  N   MET H   1      10.841  -3.075 -31.369  0.00  0.00    +0.000 N 
ATOM      2  CA  MET H   1      10.991  -4.305 -32.135  0.00  0.00    +0.000 C 
ATOM      3  C   MET H   1      11.739  -5.392 -31.363  0.00  0.00    +0.000 C 
ATOM      4  O   MET H   1      11.962  -6.473 -31.907  0.00  0.00    +0.000 OA
ATOM      5  CB  MET H   1      11.702  -4.016 -33.464  0.00  0.00    +0.000 C 
ATOM      6  CG  MET H   1      10.939  -3.077 -34.354  0.00  0.00    +0.000 C 
ATOM      7  SD  MET H   1       9.694  -3.886 -35.351  0.00  0.00    +0.000 S 
ATOM      8  CE  MET H   1       8.467  -2.741 -35.210  0.00  0.00    +0.000 C 
ATOM      9  N   SER H   2      12.142  -5.116 -30.116  0.00  0.00    +0.000 N 
ATOM     10  CA  SER H   2      12.852  -6.080 -29.273  0.00  0.00    +0.000 C 
ATOM     11  CB  SER H   2      11.888  -7.065 -28.578  0.00  0.00    +0.000 C 
ATOM     12  OG  SER H   2      12.352  -8.060 -28.028  0.00  0.00    +0.000 OA
ATOM     13  C   SER H   2      13.699  -5.354 -28.241  0.00  0.00    +0.000 C 
ATOM     14  O   SER H   2      12.898  -4.800 -27.218  0.00  0.00    +0.000 OA
ATOM     15  H   MET H   1      10.337  -2.386 -31.928  0.00  0.00    +0.000 HD
ATOM     16  H   MET H   1      11.762  -2.710 -31.128  0.00  0.00    +0.000 HD
ATOM     17  H   MET H   1      10.318  -3.268 -30.515  0.00  0.00    +0.000 HD
ATOM     18  H   SER H   2      11.952  -4.223 -29.749  0.00  0.00    +0.000 HD
ATOM     19  H   SER H   2      12.282  -4.157 -27.602  0.00  0.00    +0.000 HD
TER 
REMARK  Name = /data/user_data/xianyang/t3-aimnet-affinity-balanced/L2/Q13224/pocket.pdb
REMARK                            x       y       z     vdW  Elec       q    Type
REMARK                         _______ _______ _______ _____ _____    ______ ____
ATOM      1  N   THR I   1      15.704  -0.740 -39.613  0.00  0.00    +0.000 N 
ATOM      2  CA  THR I   1      16.466  -1.671 -40.461  0.00  0.00    +0.000 C 
ATOM      3  C   THR I   1      15.539  -2.160 -41.583  0.00  0.00    +0.000 C 
ATOM      4  O   THR I   1      14.317  -1.974 -41.496  0.00  0.00    +0.000 OA
ATOM      5  CB  THR I   1      17.039  -2.855 -39.647  0.00  0.00    +0.000 C 
ATOM      6  OG1 THR I   1      16.013  -3.772 -39.278  0.00  0.00    +0.000 OA
ATOM      7  CG2 THR I   1      17.806  -2.425 -38.426  0.00  0.00    +0.000 C 
ATOM      8  H   THR I   1      15.344   0.024 -40.185  0.00  0.00    +0.000 HD
ATOM      9  H   THR I   1      16.314  -0.363 -38.888  0.00  0.00    +0.000 HD
ATOM     10  H   THR I   1      14.925  -1.235 -39.179  0.00  0.00    +0.000 HD
ATOM     11  H   THR I   1      15.382  -3.331 -38.688  0.00  0.00    +0.000 HD
TER 
REMARK  Name = /data/user_data/xianyang/t3-aimnet-affinity-balanced/L2/Q13224/pocket.pdb
REMARK                            x       y       z     vdW  Elec       q    Type
REMARK                         _______ _______ _______ _____ _____    ______ ____
ATOM      1  N   GLU J   1      13.254  -4.795 -40.263  0.00  0.00    +0.000 N 
ATOM      2  CA  GLU J   1      12.225  -4.116 -39.466  0.00  0.00    +0.000 C 
ATOM      3  C   GLU J   1      11.150  -3.492 -40.350  0.00  0.00    +0.000 C 
ATOM      4  O   GLU J   1       9.971  -3.624 -40.048  0.00  0.00    +0.000 OA
ATOM      5  CB  GLU J   1      12.853  -3.051 -38.577  0.00  0.00    +0.000 C 
ATOM      6  CG  GLU J   1      13.511  -3.650 -37.354  0.00  0.00    +0.000 C 
ATOM      7  CD  GLU J   1      14.301  -2.716 -36.463  0.00  0.00    +0.000 C 
ATOM      8  OE1 GLU J   1      14.607  -1.572 -36.874  0.00  0.00    +0.000 OA
ATOM      9  OE2 GLU J   1      14.650  -3.163 -35.348  0.00  0.00    +0.000 OA
ATOM     10  H   GLU J   1      12.816  -5.504 -40.851  0.00  0.00    +0.000 HD
ATOM     11  H   GLU J   1      13.928  -5.240 -39.640  0.00  0.00    +0.000 HD
ATOM     12  H   GLU J   1      13.733  -4.113 -40.851  0.00  0.00    +0.000 HD
TER 
