REMARK  Name = /data/user_data/xianyang/t3-aimnet-affinity-balanced/L1/P56524/pocket.pdb
REMARK                            x       y       z     vdW  Elec       q    Type
REMARK                         _______ _______ _______ _____ _____    ______ ____
ATOM      1  N   ARG A   1       7.528  80.749  28.593  0.00  0.00    +0.000 N 
ATOM      2  CA  ARG A   1       8.321  81.953  28.355  0.00  0.00    +0.000 C 
ATOM      3  C   ARG A   1       8.239  82.468  26.917  0.00  0.00    +0.000 C 
ATOM      4  O   ARG A   1       7.823  83.610  26.694  0.00  0.00    +0.000 OA
ATOM      5  CB  ARG A   1       9.781  81.689  28.738  0.00  0.00    +0.000 C 
ATOM      6  CG  ARG A   1       9.968  81.394  30.223  0.00  0.00    +0.000 C 
ATOM      7  CD  ARG A   1      11.244  80.634  30.493  0.00  0.00    +0.000 C 
ATOM      8  NE  ARG A   1      12.405  81.411  30.099  0.00  0.00    +0.000 N 
ATOM      9  CZ  ARG A   1      13.271  81.094  29.141  0.00  0.00    +0.000 C 
ATOM     10  NH1 ARG A   1      13.158  79.987  28.421  0.00  0.00    +0.000 N 
ATOM     11  NH2 ARG A   1      14.285  81.913  28.909  0.00  0.00    +0.000 N 
ATOM     12  H   ARG A   1       6.556  80.926  28.338  0.00  0.00    +0.000 HD
ATOM     13  H   ARG A   1       7.580  80.497  29.580  0.00  0.00    +0.000 HD
ATOM     14  H   ARG A   1       7.894  79.983  28.027  0.00  0.00    +0.000 HD
ATOM     15  H   ARG A   1      12.566  82.251  30.586  0.00  0.00    +0.000 HD
ATOM     16  H   ARG A   1      13.819  79.786  27.720  0.00  0.00    +0.000 HD
ATOM     17  H   ARG A   1      12.413  79.366  28.587  0.00  0.00    +0.000 HD
ATOM     18  H   ARG A   1      14.939  81.699  28.205  0.00  0.00    +0.000 HD
ATOM     19  H   ARG A   1      14.385  82.736  29.441  0.00  0.00    +0.000 HD
TER 
REMARK  Name = /data/user_data/xianyang/t3-aimnet-affinity-balanced/L1/P56524/pocket.pdb
REMARK                            x       y       z     vdW  Elec       q    Type
REMARK                         _______ _______ _______ _____ _____    ______ ____
ATOM      1  N   PRO B   1      17.620  77.622  26.631  0.00  0.00    +0.000 N 
ATOM      2  CA  PRO B   1      18.886  78.370  26.522  0.00  0.00    +0.000 C 
ATOM      3  C   PRO B   1      19.997  77.469  26.036  0.00  0.00    +0.000 C 
ATOM      4  O   PRO B   1      19.814  76.254  26.012  0.00  0.00    +0.000 OA
ATOM      5  CB  PRO B   1      19.180  78.818  27.960  0.00  0.00    +0.000 C 
ATOM      6  CG  PRO B   1      17.980  78.547  28.749  0.00  0.00    +0.000 C 
ATOM      7  CD  PRO B   1      17.073  77.637  27.999  0.00  0.00    +0.000 C 
ATOM      8  N   GLY B   2      21.148  78.034  25.677  0.00  0.00    +0.000 N 
ATOM      9  CA  GLY B   2      22.285  77.221  25.230  0.00  0.00    +0.000 C 
ATOM     10  C   GLY B   2      23.658  77.493  25.831  0.00  0.00    +0.000 C 
ATOM     11  O   GLY B   2      24.553  76.677  25.677  0.00  0.00    +0.000 OA
ATOM     12  N   HIS B   3      23.837  78.615  26.525  0.00  0.00    +0.000 N 
ATOM     13  CA  HIS B   3      25.192  79.129  26.813  0.00  0.00    +0.000 C 
ATOM     14  C   HIS B   3      26.004  78.403  27.892  0.00  0.00    +0.000 C 
ATOM     15  O   HIS B   3      27.229  78.590  27.976  0.00  0.00    +0.000 OA
ATOM     16  CB  HIS B   3      25.156  80.655  27.046  0.00  0.00    +0.000 C 
ATOM     17  CG  HIS B   3      24.530  81.083  28.339  0.00  0.00    +0.000 C 
ATOM     18  ND1 HIS B   3      24.931  82.220  29.008  0.00  0.00    +0.000 NA
ATOM     19  CD2 HIS B   3      23.540  80.537  29.086  0.00  0.00    +0.000 C 
ATOM     20  CE1 HIS B   3      24.208  82.358  30.103  0.00  0.00    +0.000 C 
ATOM     21  NE2 HIS B   3      23.362  81.349  30.176  0.00  0.00    +0.000 NA
ATOM     22  N   HIS B   4      25.346  77.552  28.678  0.00  0.00    +0.000 N 
ATOM     23  CA  HIS B   4      26.033  76.708  29.657  0.00  0.00    +0.000 C 
ATOM     24  C   HIS B   4      26.445  75.357  29.068  0.00  0.00    +0.000 C 
ATOM     25  O   HIS B   4      27.257  74.660  29.675  0.00  0.00    +0.000 OA
ATOM     26  CB  HIS B   4      25.153  76.399  30.882  0.00  0.00    +0.000 C 
ATOM     27  CG  HIS B   4      24.665  77.602  31.627  0.00  0.00    +0.000 A 
ATOM     28  ND1 HIS B   4      25.512  78.539  32.170  0.00  0.00    +0.000 N 
ATOM     29  CD2 HIS B   4      23.413  77.969  31.992  0.00  0.00    +0.000 A 
ATOM     30  CE1 HIS B   4      24.801  79.457  32.803  0.00  0.00    +0.000 A 
ATOM     31  NE2 HIS B   4      23.523  79.133  32.712  0.00  0.00    +0.000 NA
ATOM     32  H   PRO B   1      17.787  76.654  26.356  0.00  0.00    +0.000 HD
ATOM     33  H   PRO B   1      16.939  78.073  26.020  0.00  0.00    +0.000 HD
ATOM     34  H   GLY B   2      21.238  79.014  25.712  0.00  0.00    +0.000 HD
ATOM     35  H   HIS B   3      23.052  79.111  26.852  0.00  0.00    +0.000 HD
ATOM     36  H   HIS B   4      24.367  77.489  28.598  0.00  0.00    +0.000 HD
ATOM     37  H   HIS B   4      26.494  78.528  32.099  0.00  0.00    +0.000 HD
TER 
REMARK  Name = /data/user_data/xianyang/t3-aimnet-affinity-balanced/L1/P56524/pocket.pdb
REMARK                            x       y       z     vdW  Elec       q    Type
REMARK                         _______ _______ _______ _____ _____    ______ ____
ATOM      1  N   MET C   1      24.047  71.166  30.717  0.00  0.00    +0.000 N 
ATOM      2  CA  MET C   1      23.909  71.695  32.084  0.00  0.00    +0.000 C 
ATOM      3  C   MET C   1      23.150  73.004  32.083  0.00  0.00    +0.000 C 
ATOM      4  O   MET C   1      23.041  73.661  31.053  0.00  0.00    +0.000 OA
ATOM      5  CB  MET C   1      25.270  71.910  32.758  0.00  0.00    +0.000 C 
ATOM      6  CG  MET C   1      26.290  72.601  31.893  0.00  0.00    +0.000 C 
ATOM      7  SD  MET C   1      27.846  72.865  32.752  0.00  0.00    +0.000 S 
ATOM      8  CE  MET C   1      27.384  74.257  33.767  0.00  0.00    +0.000 C 
ATOM      9  N   GLY C   2      22.608  73.362  33.244  0.00  0.00    +0.000 N 
ATOM     10  CA  GLY C   2      21.838  74.589  33.397  0.00  0.00    +0.000 C 
ATOM     11  C   GLY C   2      20.722  74.711  32.375  0.00  0.00    +0.000 C 
ATOM     12  O   GLY C   2      20.486  75.786  31.850  0.00  0.00    +0.000 OA
ATOM     13  N   PHE C   3      20.044  73.600  32.093  0.00  0.00    +0.000 N 
ATOM     14  CA  PHE C   3      18.912  73.559  31.151  0.00  0.00    +0.000 C 
ATOM     15  C   PHE C   3      19.344  73.683  29.684  0.00  0.00    +0.000 C 
ATOM     16  O   PHE C   3      18.510  73.872  28.801  0.00  0.00    +0.000 OA
ATOM     17  CB  PHE C   3      17.853  74.622  31.486  0.00  0.00    +0.000 C 
ATOM     18  CG  PHE C   3      17.416  74.616  32.926  0.00  0.00    +0.000 A 
ATOM     19  CD2 PHE C   3      17.782  75.638  33.782  0.00  0.00    +0.000 A 
ATOM     20  CD1 PHE C   3      16.641  73.584  33.422  0.00  0.00    +0.000 A 
ATOM     21  CE2 PHE C   3      17.384  75.628  35.119  0.00  0.00    +0.000 A 
ATOM     22  CE1 PHE C   3      16.247  73.565  34.754  0.00  0.00    +0.000 A 
ATOM     23  CZ  PHE C   3      16.617  74.593  35.599  0.00  0.00    +0.000 A 
ATOM     24  N   CYS C   4      20.640  73.547  29.431  0.00  0.00    +0.000 N 
ATOM     25  CA  CYS C   4      21.202  73.707  28.096  0.00  0.00    +0.000 C 
ATOM     26  C   CYS C   4      21.700  72.377  27.566  0.00  0.00    +0.000 C 
ATOM     27  O   CYS C   4      22.501  71.700  28.228  0.00  0.00    +0.000 OA
ATOM     28  CB  CYS C   4      22.372  74.691  28.122  0.00  0.00    +0.000 C 
ATOM     29  SG  CYS C   4      21.918  76.311  28.767  0.00  0.00    +0.000 S 
ATOM     30  H   MET C   1      23.122  71.038  30.307  0.00  0.00    +0.000 HD
ATOM     31  H   MET C   1      24.532  70.269  30.747  0.00  0.00    +0.000 HD
ATOM     32  H   MET C   1      24.582  71.824  30.150  0.00  0.00    +0.000 HD
ATOM     33  H   GLY C   2      22.732  72.778  34.027  0.00  0.00    +0.000 HD
ATOM     34  H   PHE C   3      20.313  72.763  32.537  0.00  0.00    +0.000 HD
ATOM     35  H   CYS C   4      21.246  73.329  30.176  0.00  0.00    +0.000 HD
ATOM     36  H   CYS C   4      20.970  76.868  27.967  0.00  0.00    +0.000 HD
TER 
REMARK  Name = /data/user_data/xianyang/t3-aimnet-affinity-balanced/L1/P56524/pocket.pdb
REMARK                            x       y       z     vdW  Elec       q    Type
REMARK                         _______ _______ _______ _____ _____    ______ ____
ATOM      1  N   ASP D   1      23.034  87.561  29.986  0.00  0.00    +0.000 N 
ATOM      2  CA  ASP D   1      22.362  86.698  30.954  0.00  0.00    +0.000 C 
ATOM      3  C   ASP D   1      23.091  86.892  32.283  0.00  0.00    +0.000 C 
ATOM      4  O   ASP D   1      24.319  87.054  32.293  0.00  0.00    +0.000 OA
ATOM      5  CB  ASP D   1      22.453  85.258  30.465  0.00  0.00    +0.000 C 
ATOM      6  CG  ASP D   1      21.640  84.297  31.299  0.00  0.00    +0.000 C 
ATOM      7  OD1 ASP D   1      20.504  83.958  30.890  0.00  0.00    +0.000 OA
ATOM      8  OD2 ASP D   1      22.137  83.885  32.361  0.00  0.00    +0.000 OA
ATOM      9  H   ASP D   1      22.582  87.468  29.076  0.00  0.00    +0.000 HD
ATOM     10  H   ASP D   1      24.014  87.287  29.909  0.00  0.00    +0.000 HD
ATOM     11  H   ASP D   1      22.975  88.531  30.297  0.00  0.00    +0.000 HD
TER 
REMARK  Name = /data/user_data/xianyang/t3-aimnet-affinity-balanced/L1/P56524/pocket.pdb
REMARK                            x       y       z     vdW  Elec       q    Type
REMARK                         _______ _______ _______ _____ _____    ______ ____
ATOM      1  N   HIS E   1      24.016  84.850  34.489  0.00  0.00    +0.000 N 
ATOM      2  CA  HIS E   1      24.943  83.746  34.776  0.00  0.00    +0.000 C 
ATOM      3  C   HIS E   1      26.005  83.653  33.709  0.00  0.00    +0.000 C 
ATOM      4  O   HIS E   1      25.737  83.910  32.532  0.00  0.00    +0.000 OA
ATOM      5  CB  HIS E   1      24.195  82.408  34.850  0.00  0.00    +0.000 C 
ATOM      6  CG  HIS E   1      23.044  82.418  35.798  0.00  0.00    +0.000 C 
ATOM      7  ND1 HIS E   1      21.760  82.713  35.395  0.00  0.00    +0.000 NA
ATOM      8  CD2 HIS E   1      22.984  82.193  37.132  0.00  0.00    +0.000 C 
ATOM      9  CE1 HIS E   1      20.959  82.680  36.449  0.00  0.00    +0.000 C 
ATOM     10  NE2 HIS E   1      21.674  82.351  37.509  0.00  0.00    +0.000 NA
ATOM     11  H   HIS E   1      24.535  85.727  34.445  0.00  0.00    +0.000 HD
ATOM     12  H   HIS E   1      23.315  84.907  35.228  0.00  0.00    +0.000 HD
ATOM     13  H   HIS E   1      23.554  84.683  33.595  0.00  0.00    +0.000 HD
TER 
REMARK  Name = /data/user_data/xianyang/t3-aimnet-affinity-balanced/L1/P56524/pocket.pdb
REMARK                            x       y       z     vdW  Elec       q    Type
REMARK                         _______ _______ _______ _____ _____    ______ ____
ATOM      1  N   PHE F   1      28.290  81.842  42.726  0.00  0.00    +0.000 N 
ATOM      2  CA  PHE F   1      27.006  81.945  42.031  0.00  0.00    +0.000 C 
ATOM      3  C   PHE F   1      27.066  81.052  40.784  0.00  0.00    +0.000 C 
ATOM      4  O   PHE F   1      28.100  80.971  40.130  0.00  0.00    +0.000 OA
ATOM      5  CB  PHE F   1      26.746  83.425  41.676  0.00  0.00    +0.000 C 
ATOM      6  CG  PHE F   1      25.336  83.720  41.245  0.00  0.00    +0.000 A 
ATOM      7  CD2 PHE F   1      24.300  83.668  42.156  0.00  0.00    +0.000 A 
ATOM      8  CD1 PHE F   1      25.053  84.067  39.927  0.00  0.00    +0.000 A 
ATOM      9  CE2 PHE F   1      23.004  83.934  41.767  0.00  0.00    +0.000 A 
ATOM     10  CE1 PHE F   1      23.759  84.339  39.527  0.00  0.00    +0.000 A 
ATOM     11  CZ  PHE F   1      22.727  84.274  40.447  0.00  0.00    +0.000 A 
ATOM     12  N   PHE F   2      25.972  80.364  40.470  0.00  0.00    +0.000 N 
ATOM     13  CA  PHE F   2      25.948  79.443  39.329  0.00  0.00    +0.000 C 
ATOM     14  C   PHE F   2      26.365  80.132  38.022  0.00  0.00    +0.000 C 
ATOM     15  O   PHE F   2      25.927  81.265  37.764  0.00  0.00    +0.000 OA
ATOM     16  CB  PHE F   2      24.544  78.854  39.158  0.00  0.00    +0.000 C 
ATOM     17  CG  PHE F   2      24.432  77.849  38.034  0.00  0.00    +0.000 A 
ATOM     18  CD2 PHE F   2      24.664  76.499  38.269  0.00  0.00    +0.000 A 
ATOM     19  CD1 PHE F   2      24.082  78.256  36.749  0.00  0.00    +0.000 A 
ATOM     20  CE2 PHE F   2      24.565  75.570  37.253  0.00  0.00    +0.000 A 
ATOM     21  CE1 PHE F   2      23.973  77.328  35.717  0.00  0.00    +0.000 A 
ATOM     22  CZ  PHE F   2      24.220  75.979  35.969  0.00  0.00    +0.000 A 
ATOM     23  H   PHE F   1      28.470  80.867  42.965  0.00  0.00    +0.000 HD
ATOM     24  H   PHE F   1      28.261  82.401  43.579  0.00  0.00    +0.000 HD
ATOM     25  H   PHE F   1      29.034  82.187  42.119  0.00  0.00    +0.000 HD
ATOM     26  H   PHE F   2      25.160  80.475  41.016  0.00  0.00    +0.000 HD
TER 
REMARK  Name = /data/user_data/xianyang/t3-aimnet-affinity-balanced/L1/P56524/pocket.pdb
REMARK                            x       y       z     vdW  Elec       q    Type
REMARK                         _______ _______ _______ _____ _____    ______ ____
ATOM      1  N   ASP G   1      17.463  87.446  33.056  0.00  0.00    +0.000 N 
ATOM      2  CA  ASP G   1      17.376  87.161  34.482  0.00  0.00    +0.000 C 
ATOM      3  C   ASP G   1      18.023  88.221  35.393  0.00  0.00    +0.000 C 
ATOM      4  O   ASP G   1      17.851  88.172  36.613  0.00  0.00    +0.000 OA
ATOM      5  CB  ASP G   1      17.850  85.719  34.817  0.00  0.00    +0.000 C 
ATOM      6  CG  ASP G   1      19.131  85.320  34.118  0.00  0.00    +0.000 C 
ATOM      7  OD1 ASP G   1      19.745  86.182  33.452  0.00  0.00    +0.000 OA
ATOM      8  OD2 ASP G   1      19.528  84.122  34.235  0.00  0.00    +0.000 OA
ATOM      9  H   ASP G   1      17.012  86.697  32.531  0.00  0.00    +0.000 HD
ATOM     10  H   ASP G   1      18.443  87.511  32.781  0.00  0.00    +0.000 HD
ATOM     11  H   ASP G   1      16.995  88.330  32.857  0.00  0.00    +0.000 HD
TER 
REMARK  Name = /data/user_data/xianyang/t3-aimnet-affinity-balanced/L1/P56524/pocket.pdb
REMARK                            x       y       z     vdW  Elec       q    Type
REMARK                         _______ _______ _______ _____ _____    ______ ____
ATOM      1  N   PRO H   1      18.499  83.825  44.617  0.00  0.00    +0.000 N 
ATOM      2  CA  PRO H   1      19.178  82.647  44.072  0.00  0.00    +0.000 C 
ATOM      3  C   PRO H   1      19.215  82.611  42.537  0.00  0.00    +0.000 C 
ATOM      4  O   PRO H   1      20.276  82.353  41.962  0.00  0.00    +0.000 OA
ATOM      5  CB  PRO H   1      18.373  81.476  44.644  0.00  0.00    +0.000 C 
ATOM      6  CG  PRO H   1      17.042  82.031  44.916  0.00  0.00    +0.000 C 
ATOM      7  CD  PRO H   1      17.228  83.476  45.277  0.00  0.00    +0.000 C 
ATOM      8  N   LEU H   2      18.081  82.876  41.890  0.00  0.00    +0.000 N 
ATOM      9  CA  LEU H   2      18.005  82.863  40.426  0.00  0.00    +0.000 C 
ATOM     10  C   LEU H   2      18.721  84.062  39.804  0.00  0.00    +0.000 C 
ATOM     11  O   LEU H   2      19.417  83.911  38.812  0.00  0.00    +0.000 OA
ATOM     12  CB  LEU H   2      16.543  82.859  39.950  0.00  0.00    +0.000 C 
ATOM     13  CG  LEU H   2      16.290  82.894  38.427  0.00  0.00    +0.000 C 
ATOM     14  CD1 LEU H   2      17.041  81.772  37.724  0.00  0.00    +0.000 C 
ATOM     15  CD2 LEU H   2      14.786  82.821  38.097  0.00  0.00    +0.000 C 
ATOM     16  H   PRO H   1      18.306  84.475  43.855  0.00  0.00    +0.000 HD
ATOM     17  H   PRO H   1      19.111  84.245  45.316  0.00  0.00    +0.000 HD
ATOM     18  H   LEU H   2      17.272  83.086  42.409  0.00  0.00    +0.000 HD
TER 
REMARK  Name = /data/user_data/xianyang/t3-aimnet-affinity-balanced/L1/P56524/pocket.pdb
REMARK                            x       y       z     vdW  Elec       q    Type
REMARK                         _______ _______ _______ _____ _____    ______ ____
ATOM      1  N   GLU I   1      18.230  83.616  26.213  0.00  0.00    +0.000 N 
ATOM      2  CA  GLU I   1      18.866  82.633  27.070  0.00  0.00    +0.000 C 
ATOM      3  C   GLU I   1      17.947  82.484  28.279  0.00  0.00    +0.000 C 
ATOM      4  O   GLU I   1      16.811  82.062  28.101  0.00  0.00    +0.000 OA
ATOM      5  CB  GLU I   1      20.272  83.089  27.459  0.00  0.00    +0.000 C 
ATOM      6  CG  GLU I   1      21.203  83.270  26.294  0.00  0.00    +0.000 C 
ATOM      7  CD  GLU I   1      21.728  81.960  25.713  0.00  0.00    +0.000 C 
ATOM      8  OE2 GLU I   1      21.346  80.869  26.202  0.00  0.00    +0.000 OA
ATOM      9  OE1 GLU I   1      22.528  82.024  24.755  0.00  0.00    +0.000 OA
ATOM     10  N   GLY I   2      18.414  82.857  29.475  0.00  0.00    +0.000 N 
ATOM     11  CA  GLY I   2      17.617  82.819  30.696  0.00  0.00    +0.000 C 
ATOM     12  C   GLY I   2      16.675  83.982  30.916  0.00  0.00    +0.000 C 
ATOM     13  O   GLY I   2      16.413  84.789  30.019  0.00  0.00    +0.000 OA
ATOM     14  N   GLY I   3      16.154  84.061  32.133  0.00  0.00    +0.000 N 
ATOM     15  CA  GLY I   3      15.035  84.943  32.439  0.00  0.00    +0.000 C 
ATOM     16  C   GLY I   3      13.809  84.072  32.635  0.00  0.00    +0.000 C 
ATOM     17  O   GLY I   3      13.600  83.136  31.881  0.00  0.00    +0.000 OA
ATOM     18  H   GLU I   1      18.801  83.761  25.380  0.00  0.00    +0.000 HD
ATOM     19  H   GLU I   1      18.135  84.497  26.718  0.00  0.00    +0.000 HD
ATOM     20  H   GLU I   1      17.307  83.281  25.938  0.00  0.00    +0.000 HD
ATOM     21  H   GLY I   2      19.344  83.174  29.535  0.00  0.00    +0.000 HD
ATOM     22  H   GLY I   3      16.535  83.507  32.852  0.00  0.00    +0.000 HD
TER 
