REMARK  Name = /data/user_data/xianyang/t3-aimnet-affinity-balanced/L2/Q9Y5Z0/pocket.pdb
REMARK                            x       y       z     vdW  Elec       q    Type
REMARK                         _______ _______ _______ _____ _____    ______ ____
ATOM      1  N   GLY A   1      23.806 -19.942 -12.542  0.00  0.00    +0.000 N 
ATOM      2  CA  GLY A   1      24.260 -19.082 -13.636  0.00  0.00    +0.000 C 
ATOM      3  C   GLY A   1      23.206 -18.187 -14.274  0.00  0.00    +0.000 C 
ATOM      4  O   GLY A   1      23.310 -17.887 -15.469  0.00  0.00    +0.000 OA
ATOM      5  N   ALA A   2      22.214 -17.755 -13.486  0.00  0.00    +0.000 N 
ATOM      6  CA  ALA A   2      21.138 -16.852 -13.931  0.00  0.00    +0.000 C 
ATOM      7  C   ALA A   2      21.109 -15.522 -13.148  0.00  0.00    +0.000 C 
ATOM      8  O   ALA A   2      20.088 -14.820 -13.157  0.00  0.00    +0.000 OA
ATOM      9  CB  ALA A   2      19.790 -17.577 -13.827  0.00  0.00    +0.000 C 
ATOM     10  N   GLY A   3      22.226 -15.175 -12.495  0.00  0.00    +0.000 N 
ATOM     11  CA  GLY A   3      22.403 -13.889 -11.824  0.00  0.00    +0.000 C 
ATOM     12  C   GLY A   3      22.431 -13.991 -10.314  0.00  0.00    +0.000 C 
ATOM     13  O   GLY A   3      21.841 -14.904  -9.729  0.00  0.00    +0.000 OA
ATOM     14  N   TYR A   4      23.119 -13.027  -9.703  0.00  0.00    +0.000 N 
ATOM     15  CA  TYR A   4      23.233 -12.894  -8.254  0.00  0.00    +0.000 C 
ATOM     16  C   TYR A   4      22.305 -11.784  -7.829  0.00  0.00    +0.000 C 
ATOM     17  O   TYR A   4      22.391 -10.676  -8.376  0.00  0.00    +0.000 OA
ATOM     18  CB  TYR A   4      24.667 -12.564  -7.864  0.00  0.00    +0.000 C 
ATOM     19  CG  TYR A   4      25.559 -13.734  -8.111  0.00  0.00    +0.000 A 
ATOM     20  CD2 TYR A   4      25.783 -14.676  -7.106  0.00  0.00    +0.000 A 
ATOM     21  CD1 TYR A   4      26.133 -13.949  -9.373  0.00  0.00    +0.000 A 
ATOM     22  CE2 TYR A   4      26.584 -15.780  -7.335  0.00  0.00    +0.000 A 
ATOM     23  CE1 TYR A   4      26.936 -15.056  -9.610  0.00  0.00    +0.000 A 
ATOM     24  CZ  TYR A   4      27.149 -15.962  -8.582  0.00  0.00    +0.000 A 
ATOM     25  OH  TYR A   4      27.931 -17.046  -8.770  0.00  0.00    +0.000 OA
ATOM     26  H   GLY A   1      24.591 -20.493 -12.194  0.00  0.00    +0.000 HD
ATOM     27  H   GLY A   1      23.076 -20.568 -12.882  0.00  0.00    +0.000 HD
ATOM     28  H   GLY A   1      23.435 -19.365 -11.787  0.00  0.00    +0.000 HD
ATOM     29  H   ALA A   2      22.203 -18.060 -12.550  0.00  0.00    +0.000 HD
ATOM     30  H   GLY A   3      22.968 -15.821 -12.466  0.00  0.00    +0.000 HD
ATOM     31  H   TYR A   4      23.580 -12.362 -10.265  0.00  0.00    +0.000 HD
ATOM     32  H   TYR A   4      28.329 -17.198  -9.605  0.00  0.00    +0.000 HD
TER 
REMARK  Name = /data/user_data/xianyang/t3-aimnet-affinity-balanced/L2/Q9Y5Z0/pocket.pdb
REMARK                            x       y       z     vdW  Elec       q    Type
REMARK                         _______ _______ _______ _____ _____    ______ ____
ATOM      1  N   LEU B   1      18.485  -8.288  -8.958  0.00  0.00    +0.000 N 
ATOM      2  CA  LEU B   1      19.768  -8.588  -9.614  0.00  0.00    +0.000 C 
ATOM      3  C   LEU B   1      20.799  -7.470  -9.415  0.00  0.00    +0.000 C 
ATOM      4  O   LEU B   1      20.515  -6.308  -9.717  0.00  0.00    +0.000 OA
ATOM      5  CB  LEU B   1      19.550  -8.797 -11.120  0.00  0.00    +0.000 C 
ATOM      6  CG  LEU B   1      20.764  -9.073 -12.023  0.00  0.00    +0.000 C 
ATOM      7  CD2 LEU B   1      21.240 -10.500 -11.831  0.00  0.00    +0.000 C 
ATOM      8  CD1 LEU B   1      20.431  -8.802 -13.482  0.00  0.00    +0.000 C 
ATOM      9  H   LEU B   1      17.834  -9.057  -9.117  0.00  0.00    +0.000 HD
ATOM     10  H   LEU B   1      18.097  -7.428  -9.346  0.00  0.00    +0.000 HD
ATOM     11  H   LEU B   1      18.635  -8.171  -7.956  0.00  0.00    +0.000 HD
TER 
REMARK  Name = /data/user_data/xianyang/t3-aimnet-affinity-balanced/L2/Q9Y5Z0/pocket.pdb
REMARK                            x       y       z     vdW  Elec       q    Type
REMARK                         _______ _______ _______ _____ _____    ______ ____
ATOM      1  N   ASP C   1      23.758  -5.479 -10.599  0.00  0.00    +0.000 N 
ATOM      2  CA  ASP C   1      24.217  -5.154 -11.947  0.00  0.00    +0.000 C 
ATOM      3  C   ASP C   1      25.153  -3.936 -11.936  0.00  0.00    +0.000 C 
ATOM      4  O   ASP C   1      24.696  -2.790 -11.911  0.00  0.00    +0.000 OA
ATOM      5  CB  ASP C   1      22.983  -4.907 -12.829  0.00  0.00    +0.000 C 
ATOM      6  CG  ASP C   1      23.321  -4.598 -14.278  0.00  0.00    +0.000 C 
ATOM      7  OD2 ASP C   1      24.480  -4.745 -14.730  0.00  0.00    +0.000 OA
ATOM      8  OD1 ASP C   1      22.388  -4.205 -14.989  0.00  0.00    +0.000 OA
ATOM      9  N   THR C   2      26.459  -4.197 -12.020  0.00  0.00    +0.000 N 
ATOM     10  CA  THR C   2      27.465  -3.129 -12.152  0.00  0.00    +0.000 C 
ATOM     11  C   THR C   2      27.583  -2.536 -13.578  0.00  0.00    +0.000 C 
ATOM     12  O   THR C   2      28.367  -1.614 -13.765  0.00  0.00    +0.000 OA
ATOM     13  CB  THR C   2      28.859  -3.582 -11.650  0.00  0.00    +0.000 C 
ATOM     14  OG1 THR C   2      29.356  -4.651 -12.463  0.00  0.00    +0.000 OA
ATOM     15  CG2 THR C   2      28.788  -4.033 -10.192  0.00  0.00    +0.000 C 
ATOM     16  N   GLY C   3      26.831  -3.055 -14.563  0.00  0.00    +0.000 N 
ATOM     17  CA  GLY C   3      26.786  -2.500 -15.932  0.00  0.00    +0.000 C 
ATOM     18  C   GLY C   3      25.584  -1.653 -16.320  0.00  0.00    +0.000 C 
ATOM     19  O   GLY C   3      25.382  -1.408 -17.510  0.00  0.00    +0.000 OA
ATOM     20  N   SER C   4      24.780  -1.227 -15.344  0.00  0.00    +0.000 N 
ATOM     21  CA  SER C   4      23.687  -0.260 -15.569  0.00  0.00    +0.000 C 
ATOM     22  CB  SER C   4      23.546   0.616 -14.328  0.00  0.00    +0.000 C 
ATOM     23  OG  SER C   4      24.234   0.373 -13.335  0.00  0.00    +0.000 OA
ATOM     24  C   SER C   4      22.379  -0.982 -15.902  0.00  0.00    +0.000 C 
ATOM     25  O   SER C   4      21.859  -1.679 -14.786  0.00  0.00    +0.000 OA
ATOM     26  H   ASP C   1      23.140  -6.289 -10.636  0.00  0.00    +0.000 HD
ATOM     27  H   ASP C   1      23.252  -4.683 -10.211  0.00  0.00    +0.000 HD
ATOM     28  H   ASP C   1      24.562  -5.692 -10.008  0.00  0.00    +0.000 HD
ATOM     29  H   THR C   2      26.760  -5.134 -11.993  0.00  0.00    +0.000 HD
ATOM     30  H   THR C   2      28.754  -5.410 -12.403  0.00  0.00    +0.000 HD
ATOM     31  H   GLY C   3      26.281  -3.847 -14.362  0.00  0.00    +0.000 HD
ATOM     32  H   SER C   4      24.922  -1.573 -14.433  0.00  0.00    +0.000 HD
ATOM     33  H   SER C   4      22.495  -2.354 -14.501  0.00  0.00    +0.000 HD
TER 
REMARK  Name = /data/user_data/xianyang/t3-aimnet-affinity-balanced/L2/Q9Y5Z0/pocket.pdb
REMARK                            x       y       z     vdW  Elec       q    Type
REMARK                         _______ _______ _______ _____ _____    ______ ____
ATOM      1  N   VAL D   1      13.884   1.998 -22.212  0.00  0.00    +0.000 N 
ATOM      2  CA  VAL D   1      15.216   1.523 -22.579  0.00  0.00    +0.000 C 
ATOM      3  C   VAL D   1      15.039   0.681 -23.843  0.00  0.00    +0.000 C 
ATOM      4  O   VAL D   1      14.313  -0.319 -23.815  0.00  0.00    +0.000 OA
ATOM      5  CB  VAL D   1      15.826   0.657 -21.447  0.00  0.00    +0.000 C 
ATOM      6  CG1 VAL D   1      17.237   0.185 -21.798  0.00  0.00    +0.000 C 
ATOM      7  CG2 VAL D   1      15.867   1.439 -20.138  0.00  0.00    +0.000 C 
ATOM      8  N   ALA D   2      15.699   1.089 -24.933  0.00  0.00    +0.000 N 
ATOM      9  CA  ALA D   2      15.677   0.367 -26.213  0.00  0.00    +0.000 C 
ATOM     10  C   ALA D   2      16.963  -0.443 -26.417  0.00  0.00    +0.000 C 
ATOM     11  O   ALA D   2      18.061   0.058 -26.153  0.00  0.00    +0.000 OA
ATOM     12  CB  ALA D   2      15.509   1.355 -27.368  0.00  0.00    +0.000 C 
ATOM     13  N   TYR D   3      16.813  -1.691 -26.873  0.00  0.00    +0.000 N 
ATOM     14  CA  TYR D   3      17.946  -2.545 -27.293  0.00  0.00    +0.000 C 
ATOM     15  C   TYR D   3      17.522  -3.599 -28.335  0.00  0.00    +0.000 C 
ATOM     16  O   TYR D   3      16.327  -3.788 -28.580  0.00  0.00    +0.000 OA
ATOM     17  CB  TYR D   3      18.671  -3.168 -26.081  0.00  0.00    +0.000 C 
ATOM     18  CG  TYR D   3      17.802  -3.858 -25.047  0.00  0.00    +0.000 A 
ATOM     19  CD1 TYR D   3      17.635  -5.251 -25.056  0.00  0.00    +0.000 A 
ATOM     20  CD2 TYR D   3      17.177  -3.126 -24.025  0.00  0.00    +0.000 A 
ATOM     21  CE1 TYR D   3      16.850  -5.890 -24.097  0.00  0.00    +0.000 A 
ATOM     22  CE2 TYR D   3      16.385  -3.754 -23.059  0.00  0.00    +0.000 A 
ATOM     23  CZ  TYR D   3      16.221  -5.137 -23.096  0.00  0.00    +0.000 A 
ATOM     24  OH  TYR D   3      15.448  -5.761 -22.144  0.00  0.00    +0.000 OA
ATOM     25  N   THR D   4      18.513  -4.238 -28.965  0.00  0.00    +0.000 N 
ATOM     26  CA  THR D   4      18.295  -5.143 -30.119  0.00  0.00    +0.000 C 
ATOM     27  C   THR D   4      17.407  -6.361 -29.825  0.00  0.00    +0.000 C 
ATOM     28  O   THR D   4      16.493  -6.658 -30.601  0.00  0.00    +0.000 OA
ATOM     29  CB  THR D   4      19.633  -5.656 -30.707  0.00  0.00    +0.000 C 
ATOM     30  OG1 THR D   4      20.437  -6.218 -29.663  0.00  0.00    +0.000 OA
ATOM     31  CG2 THR D   4      20.398  -4.526 -31.389  0.00  0.00    +0.000 C 
ATOM     32  H   VAL D   1      13.504   2.564 -22.971  0.00  0.00    +0.000 HD
ATOM     33  H   VAL D   1      13.946   2.562 -21.365  0.00  0.00    +0.000 HD
ATOM     34  H   VAL D   1      13.272   1.199 -22.045  0.00  0.00    +0.000 HD
ATOM     35  H   ALA D   2      16.228   1.917 -24.874  0.00  0.00    +0.000 HD
ATOM     36  H   TYR D   3      15.902  -2.060 -26.932  0.00  0.00    +0.000 HD
ATOM     37  H   TYR D   3      15.336  -6.691 -22.167  0.00  0.00    +0.000 HD
ATOM     38  H   THR D   4      19.434  -4.101 -28.646  0.00  0.00    +0.000 HD
ATOM     39  H   THR D   4      20.634  -5.535 -29.003  0.00  0.00    +0.000 HD
TER 
REMARK  Name = /data/user_data/xianyang/t3-aimnet-affinity-balanced/L2/Q9Y5Z0/pocket.pdb
REMARK                            x       y       z     vdW  Elec       q    Type
REMARK                         _______ _______ _______ _____ _____    ______ ____
ATOM      1  N   TRP E   1      12.155  -2.584 -22.183  0.00  0.00    +0.000 N 
ATOM      2  CA  TRP E   1      11.332  -2.406 -20.976  0.00  0.00    +0.000 C 
ATOM      3  C   TRP E   1      10.908  -0.945 -20.792  0.00  0.00    +0.000 C 
ATOM      4  O   TRP E   1      11.694  -0.031 -21.063  0.00  0.00    +0.000 OA
ATOM      5  CB  TRP E   1      12.023  -2.966 -19.713  0.00  0.00    +0.000 C 
ATOM      6  CG  TRP E   1      13.203  -2.194 -19.143  0.00  0.00    +0.000 C 
ATOM      7  CD1 TRP E   1      14.529  -2.466 -19.335  0.00  0.00    +0.000 C 
ATOM      8  CD2 TRP E   1      13.152  -1.077 -18.240  0.00  0.00    +0.000 C 
ATOM      9  NE1 TRP E   1      15.307  -1.574 -18.633  0.00  0.00    +0.000 NA
ATOM     10  CE2 TRP E   1      14.491  -0.712 -17.950  0.00  0.00    +0.000 C 
ATOM     11  CE3 TRP E   1      12.106  -0.332 -17.666  0.00  0.00    +0.000 C 
ATOM     12  CZ2 TRP E   1      14.815   0.370 -17.104  0.00  0.00    +0.000 C 
ATOM     13  CZ3 TRP E   1      12.425   0.743 -16.813  0.00  0.00    +0.000 C 
ATOM     14  CH2 TRP E   1      13.773   1.082 -16.547  0.00  0.00    +0.000 C 
ATOM     15  H   TRP E   1      11.662  -2.202 -22.990  0.00  0.00    +0.000 HD
ATOM     16  H   TRP E   1      12.330  -3.578 -22.331  0.00  0.00    +0.000 HD
ATOM     17  H   TRP E   1      13.043  -2.096 -22.064  0.00  0.00    +0.000 HD
TER 
REMARK  Name = /data/user_data/xianyang/t3-aimnet-affinity-balanced/L2/Q9Y5Z0/pocket.pdb
REMARK                            x       y       z     vdW  Elec       q    Type
REMARK                         _______ _______ _______ _____ _____    ______ ____
ATOM      1  N   PHE F   1      12.253  -9.569 -20.936  0.00  0.00    +0.000 N 
ATOM      2  CA  PHE F   1      13.008  -9.044 -19.790  0.00  0.00    +0.000 C 
ATOM      3  C   PHE F   1      13.012 -10.073 -18.662  0.00  0.00    +0.000 C 
ATOM      4  O   PHE F   1      14.083 -10.488 -18.206  0.00  0.00    +0.000 OA
ATOM      5  CB  PHE F   1      12.402  -7.715 -19.326  0.00  0.00    +0.000 C 
ATOM      6  CG  PHE F   1      13.219  -6.989 -18.292  0.00  0.00    +0.000 A 
ATOM      7  CD1 PHE F   1      14.264  -6.142 -18.669  0.00  0.00    +0.000 A 
ATOM      8  CD2 PHE F   1      12.929  -7.130 -16.936  0.00  0.00    +0.000 A 
ATOM      9  CE1 PHE F   1      15.010  -5.461 -17.705  0.00  0.00    +0.000 A 
ATOM     10  CE2 PHE F   1      13.669  -6.457 -15.966  0.00  0.00    +0.000 A 
ATOM     11  CZ  PHE F   1      14.712  -5.620 -16.351  0.00  0.00    +0.000 A 
ATOM     12  H   PHE F   1      12.252  -8.879 -21.687  0.00  0.00    +0.000 HD
ATOM     13  H   PHE F   1      11.293  -9.762 -20.651  0.00  0.00    +0.000 HD
ATOM     14  H   PHE F   1      12.690 -10.430 -21.265  0.00  0.00    +0.000 HD
TER 
REMARK  Name = /data/user_data/xianyang/t3-aimnet-affinity-balanced/L2/Q9Y5Z0/pocket.pdb
REMARK                            x       y       z     vdW  Elec       q    Type
REMARK                         _______ _______ _______ _____ _____    ______ ____
ATOM      1  N   LEU G   1      12.535 -13.638 -17.784  0.00  0.00    +0.000 N 
ATOM      2  CA  LEU G   1      12.600 -14.958 -18.419  0.00  0.00    +0.000 C 
ATOM      3  C   LEU G   1      11.974 -15.981 -17.476  0.00  0.00    +0.000 C 
ATOM      4  O   LEU G   1      12.031 -15.804 -16.253  0.00  0.00    +0.000 OA
ATOM      5  CB  LEU G   1      14.058 -15.338 -18.723  0.00  0.00    +0.000 C 
ATOM      6  CG  LEU G   1      14.928 -14.289 -19.434  0.00  0.00    +0.000 C 
ATOM      7  CD2 LEU G   1      16.343 -14.808 -19.629  0.00  0.00    +0.000 C 
ATOM      8  CD1 LEU G   1      14.321 -13.864 -20.763  0.00  0.00    +0.000 C 
ATOM      9  H   LEU G   1      12.950 -12.942 -18.403  0.00  0.00    +0.000 HD
ATOM     10  H   LEU G   1      13.049 -13.659 -16.903  0.00  0.00    +0.000 HD
ATOM     11  H   LEU G   1      11.561 -13.395 -17.604  0.00  0.00    +0.000 HD
TER 
REMARK  Name = /data/user_data/xianyang/t3-aimnet-affinity-balanced/L2/Q9Y5Z0/pocket.pdb
REMARK                            x       y       z     vdW  Elec       q    Type
REMARK                         _______ _______ _______ _____ _____    ______ ____
ATOM      1  N   TRP H   1      14.870 -13.700  -9.534  0.00  0.00    +0.000 N 
ATOM      2  CA  TRP H   1      14.843 -12.229  -9.359  0.00  0.00    +0.000 C 
ATOM      3  C   TRP H   1      13.716 -11.551 -10.150  0.00  0.00    +0.000 C 
ATOM      4  O   TRP H   1      13.315 -12.030 -11.214  0.00  0.00    +0.000 OA
ATOM      5  CB  TRP H   1      16.202 -11.558  -9.663  0.00  0.00    +0.000 C 
ATOM      6  CG  TRP H   1      16.777 -11.775 -11.037  0.00  0.00    +0.000 C 
ATOM      7  CD1 TRP H   1      17.716 -12.704 -11.388  0.00  0.00    +0.000 C 
ATOM      8  CD2 TRP H   1      16.478 -11.039 -12.230  0.00  0.00    +0.000 A 
ATOM      9  NE1 TRP H   1      18.008 -12.608 -12.725  0.00  0.00    +0.000 NA
ATOM     10  CE2 TRP H   1      17.271 -11.590 -13.269  0.00  0.00    +0.000 A 
ATOM     11  CE3 TRP H   1      15.615  -9.967 -12.529  0.00  0.00    +0.000 A 
ATOM     12  CZ2 TRP H   1      17.223 -11.113 -14.595  0.00  0.00    +0.000 A 
ATOM     13  CZ3 TRP H   1      15.567  -9.484 -13.853  0.00  0.00    +0.000 A 
ATOM     14  CH2 TRP H   1      16.370 -10.063 -14.867  0.00  0.00    +0.000 A 
ATOM     15  H   TRP H   1      13.950 -14.085  -9.320  0.00  0.00    +0.000 HD
ATOM     16  H   TRP H   1      15.563 -14.105  -8.904  0.00  0.00    +0.000 HD
ATOM     17  H   TRP H   1      15.116 -13.923 -10.498  0.00  0.00    +0.000 HD
TER 
REMARK  Name = /data/user_data/xianyang/t3-aimnet-affinity-balanced/L2/Q9Y5Z0/pocket.pdb
REMARK                            x       y       z     vdW  Elec       q    Type
REMARK                         _______ _______ _______ _____ _____    ______ ____
ATOM      1  N   ILE I   1      16.219  -5.179 -10.962  0.00  0.00    +0.000 N 
ATOM      2  CA  ILE I   1      17.655  -4.948 -11.184  0.00  0.00    +0.000 C 
ATOM      3  C   ILE I   1      18.105  -3.726 -10.380  0.00  0.00    +0.000 C 
ATOM      4  O   ILE I   1      17.425  -2.697 -10.375  0.00  0.00    +0.000 OA
ATOM      5  CB  ILE I   1      17.988  -4.748 -12.688  0.00  0.00    +0.000 C 
ATOM      6  CG1 ILE I   1      17.528  -5.981 -13.490  0.00  0.00    +0.000 C 
ATOM      7  CG2 ILE I   1      19.491  -4.491 -12.894  0.00  0.00    +0.000 C 
ATOM      8  CD1 ILE I   1      17.815  -5.953 -14.973  0.00  0.00    +0.000 C 
ATOM      9  H   ILE I   1      15.919  -5.993 -11.498  0.00  0.00    +0.000 HD
ATOM     10  H   ILE I   1      15.692  -4.360 -11.265  0.00  0.00    +0.000 HD
ATOM     11  H   ILE I   1      16.051  -5.344  -9.970  0.00  0.00    +0.000 HD
TER 
REMARK  Name = /data/user_data/xianyang/t3-aimnet-affinity-balanced/L2/Q9Y5Z0/pocket.pdb
REMARK                            x       y       z     vdW  Elec       q    Type
REMARK                         _______ _______ _______ _____ _____    ______ ____
ATOM      1  N   MET J   1      31.312 -13.490  -6.095  0.00  0.00    +0.000 N 
ATOM      2  CA  MET J   1      30.404 -14.480  -6.672  0.00  0.00    +0.000 C 
ATOM      3  C   MET J   1      30.976 -15.863  -6.385  0.00  0.00    +0.000 C 
ATOM      4  O   MET J   1      32.100 -16.152  -6.799  0.00  0.00    +0.000 OA
ATOM      5  CB  MET J   1      30.331 -14.291  -8.181  0.00  0.00    +0.000 C 
ATOM      6  CG  MET J   1      29.739 -12.982  -8.646  0.00  0.00    +0.000 C 
ATOM      7  SD  MET J   1      29.678 -12.978 -10.445  0.00  0.00    +0.000 S 
ATOM      8  CE  MET J   1      28.750 -11.475 -10.721  0.00  0.00    +0.000 C 
ATOM      9  H   MET J   1      30.951 -12.553  -6.274  0.00  0.00    +0.000 HD
ATOM     10  H   MET J   1      32.234 -13.586  -6.520  0.00  0.00    +0.000 HD
ATOM     11  H   MET J   1      31.384 -13.641  -5.089  0.00  0.00    +0.000 HD
TER 
REMARK  Name = /data/user_data/xianyang/t3-aimnet-affinity-balanced/L2/Q9Y5Z0/pocket.pdb
REMARK                            x       y       z     vdW  Elec       q    Type
REMARK                         _______ _______ _______ _____ _____    ______ ____
ATOM      1  N   TYR K   1      30.241   3.040 -17.286  0.00  0.00    +0.000 N 
ATOM      2  CA  TYR K   1      30.428   1.663 -16.881  0.00  0.00    +0.000 C 
ATOM      3  C   TYR K   1      31.713   1.704 -16.070  0.00  0.00    +0.000 C 
ATOM      4  O   TYR K   1      32.398   2.741 -16.012  0.00  0.00    +0.000 OA
ATOM      5  CB  TYR K   1      30.640   0.765 -18.110  0.00  0.00    +0.000 C 
ATOM      6  CG  TYR K   1      29.517   0.820 -19.112  0.00  0.00    +0.000 A 
ATOM      7  CD2 TYR K   1      28.388   0.009 -18.968  0.00  0.00    +0.000 A 
ATOM      8  CD1 TYR K   1      29.569   1.698 -20.206  0.00  0.00    +0.000 A 
ATOM      9  CE2 TYR K   1      27.341   0.065 -19.884  0.00  0.00    +0.000 A 
ATOM     10  CE1 TYR K   1      28.523   1.772 -21.121  0.00  0.00    +0.000 A 
ATOM     11  CZ  TYR K   1      27.415   0.947 -20.966  0.00  0.00    +0.000 A 
ATOM     12  OH  TYR K   1      26.386   1.007 -21.872  0.00  0.00    +0.000 OA
ATOM     13  H   TYR K   1      29.391   3.118 -17.844  0.00  0.00    +0.000 HD
ATOM     14  H   TYR K   1      31.041   3.343 -17.841  0.00  0.00    +0.000 HD
ATOM     15  H   TYR K   1      30.159   3.630 -16.458  0.00  0.00    +0.000 HD
ATOM     16  H   TYR K   1      26.435   1.598 -22.598  0.00  0.00    +0.000 HD
TER 
REMARK  Name = /data/user_data/xianyang/t3-aimnet-affinity-balanced/L2/Q9Y5Z0/pocket.pdb
REMARK                            x       y       z     vdW  Elec       q    Type
REMARK                         _______ _______ _______ _____ _____    ______ ____
ATOM      1  N   ASP L   1      31.388  -6.056 -15.451  0.00  0.00    +0.000 N 
ATOM      2  CA  ASP L   1      29.927  -6.095 -15.427  0.00  0.00    +0.000 C 
ATOM      3  C   ASP L   1      29.376  -7.368 -14.772  0.00  0.00    +0.000 C 
ATOM      4  O   ASP L   1      29.330  -8.427 -15.394  0.00  0.00    +0.000 OA
ATOM      5  CB  ASP L   1      29.409  -5.960 -16.859  0.00  0.00    +0.000 C 
ATOM      6  CG  ASP L   1      27.903  -5.834 -16.942  0.00  0.00    +0.000 C 
ATOM      7  OD2 ASP L   1      27.191  -5.699 -15.919  0.00  0.00    +0.000 OA
ATOM      8  OD1 ASP L   1      27.389  -5.859 -18.077  0.00  0.00    +0.000 OA
ATOM      9  N   SER L   2      28.885  -7.227 -13.540  0.00  0.00    +0.000 N 
ATOM     10  CA  SER L   2      28.178  -8.316 -12.847  0.00  0.00    +0.000 C 
ATOM     11  C   SER L   2      26.831  -8.706 -13.482  0.00  0.00    +0.000 C 
ATOM     12  O   SER L   2      26.321  -9.776 -13.174  0.00  0.00    +0.000 OA
ATOM     13  CB  SER L   2      27.955  -7.964 -11.376  0.00  0.00    +0.000 C 
ATOM     14  OG  SER L   2      27.006  -6.918 -11.235  0.00  0.00    +0.000 OA
ATOM     15  N   GLY L   3      26.259  -7.834 -14.324  0.00  0.00    +0.000 N 
ATOM     16  CA  GLY L   3      25.047  -8.123 -15.096  0.00  0.00    +0.000 C 
ATOM     17  C   GLY L   3      25.237  -8.772 -16.458  0.00  0.00    +0.000 C 
ATOM     18  O   GLY L   3      24.274  -8.866 -17.211  0.00  0.00    +0.000 OA
ATOM     19  N   THR L   4      26.452  -9.219 -16.783  0.00  0.00    +0.000 N 
ATOM     20  CA  THR L   4      26.717 -10.022 -17.979  0.00  0.00    +0.000 C 
ATOM     21  C   THR L   4      27.202 -11.386 -17.489  0.00  0.00    +0.000 C 
ATOM     22  O   THR L   4      28.076 -11.462 -16.619  0.00  0.00    +0.000 OA
ATOM     23  CB  THR L   4      27.739  -9.321 -18.895  0.00  0.00    +0.000 C 
ATOM     24  OG1 THR L   4      27.136  -8.143 -19.441  0.00  0.00    +0.000 OA
ATOM     25  CG2 THR L   4      28.177 -10.203 -20.062  0.00  0.00    +0.000 C 
ATOM     26  N   THR L   5      26.635 -12.449 -18.061  0.00  0.00    +0.000 N 
ATOM     27  CA  THR L   5      26.933 -13.825 -17.650  0.00  0.00    +0.000 C 
ATOM     28  C   THR L   5      28.344 -14.260 -18.054  0.00  0.00    +0.000 C 
ATOM     29  O   THR L   5      29.077 -14.808 -17.235  0.00  0.00    +0.000 OA
ATOM     30  CB  THR L   5      25.909 -14.826 -18.239  0.00  0.00    +0.000 C 
ATOM     31  OG1 THR L   5      24.578 -14.373 -17.955  0.00  0.00    +0.000 OA
ATOM     32  CG2 THR L   5      26.088 -16.233 -17.649  0.00  0.00    +0.000 C 
ATOM     33  H   ASP L   1      31.698  -5.192 -15.895  0.00  0.00    +0.000 HD
ATOM     34  H   ASP L   1      31.741  -6.855 -15.978  0.00  0.00    +0.000 HD
ATOM     35  H   ASP L   1      31.745  -6.094 -14.496  0.00  0.00    +0.000 HD
ATOM     36  H   SER L   2      28.999  -6.365 -13.078  0.00  0.00    +0.000 HD
ATOM     37  H   SER L   2      27.332  -6.123 -11.685  0.00  0.00    +0.000 HD
ATOM     38  H   GLY L   3      26.677  -6.949 -14.430  0.00  0.00    +0.000 HD
ATOM     39  H   THR L   4      27.206  -8.998 -16.190  0.00  0.00    +0.000 HD
ATOM     40  H   THR L   4      26.363  -8.392 -19.971  0.00  0.00    +0.000 HD
ATOM     41  H   THR L   5      25.989 -12.304 -18.790  0.00  0.00    +0.000 HD
ATOM     42  H   THR L   5      24.448 -14.333 -16.995  0.00  0.00    +0.000 HD
TER 
REMARK  Name = /data/user_data/xianyang/t3-aimnet-affinity-balanced/L2/Q9Y5Z0/pocket.pdb
REMARK                            x       y       z     vdW  Elec       q    Type
REMARK                         _______ _______ _______ _____ _____    ______ ____
ATOM      1  N   ALA M   1      30.385 -12.430 -15.454  0.00  0.00    +0.000 N 
ATOM      2  CA  ALA M   1      30.401 -13.405 -14.353  0.00  0.00    +0.000 C 
ATOM      3  C   ALA M   1      31.409 -14.542 -14.538  0.00  0.00    +0.000 C 
ATOM      4  O   ALA M   1      31.983 -14.978 -13.552  0.00  0.00    +0.000 OA
ATOM      5  CB  ALA M   1      29.008 -13.959 -14.067  0.00  0.00    +0.000 C 
ATOM      6  H   ALA M   1      31.331 -12.083 -15.615  0.00  0.00    +0.000 HD
ATOM      7  H   ALA M   1      29.774 -11.651 -15.209  0.00  0.00    +0.000 HD
ATOM      8  H   ALA M   1      30.039 -12.880 -16.302  0.00  0.00    +0.000 HD
TER 
REMARK  Name = /data/user_data/xianyang/t3-aimnet-affinity-balanced/L2/Q9Y5Z0/pocket.pdb
REMARK                            x       y       z     vdW  Elec       q    Type
REMARK                         _______ _______ _______ _____ _____    ______ ____
ATOM      1  N   GLU N   1      33.393 -14.630 -11.079  0.00  0.00    +0.000 N 
ATOM      2  CA  GLU N   1      33.339 -15.847 -10.239  0.00  0.00    +0.000 C 
ATOM      3  C   GLU N   1      34.665 -16.226  -9.564  0.00  0.00    +0.000 C 
ATOM      4  O   GLU N   1      34.651 -16.787  -8.470  0.00  0.00    +0.000 OA
ATOM      5  CB  GLU N   1      32.827 -17.037 -11.060  0.00  0.00    +0.000 C 
ATOM      6  CG  GLU N   1      31.348 -16.934 -11.425  0.00  0.00    +0.000 C 
ATOM      7  CD  GLU N   1      30.403 -17.554 -10.429  0.00  0.00    +0.000 C 
ATOM      8  OE2 GLU N   1      30.756 -17.720  -9.238  0.00  0.00    +0.000 OA
ATOM      9  OE1 GLU N   1      29.267 -17.865 -10.840  0.00  0.00    +0.000 OA
ATOM     10  H   GLU N   1      32.474 -14.456 -11.485  0.00  0.00    +0.000 HD
ATOM     11  H   GLU N   1      34.075 -14.763 -11.826  0.00  0.00    +0.000 HD
ATOM     12  H   GLU N   1      33.668 -13.833 -10.505  0.00  0.00    +0.000 HD
TER 
