REMARK  Name = /data/user_data/xianyang/t3-aimnet-affinity-balanced/L2/P06730/pocket.pdb
REMARK                            x       y       z     vdW  Elec       q    Type
REMARK                         _______ _______ _______ _____ _____    ______ ____
ATOM      1  N   TRP A   1      20.149 -18.629  50.351  0.00  0.00    +0.000 N 
ATOM      2  CA  TRP A   1      20.282 -18.887  51.779  0.00  0.00    +0.000 C 
ATOM      3  C   TRP A   1      18.998 -18.507  52.546  0.00  0.00    +0.000 C 
ATOM      4  O   TRP A   1      18.321 -17.554  52.166  0.00  0.00    +0.000 OA
ATOM      5  CB  TRP A   1      21.418 -18.047  52.364  0.00  0.00    +0.000 C 
ATOM      6  CG  TRP A   1      22.771 -18.340  51.805  0.00  0.00    +0.000 C 
ATOM      7  CD1 TRP A   1      23.281 -17.925  50.607  0.00  0.00    +0.000 C 
ATOM      8  CD2 TRP A   1      23.834 -19.005  52.487  0.00  0.00    +0.000 C 
ATOM      9  NE1 TRP A   1      24.605 -18.288  50.508  0.00  0.00    +0.000 NA
ATOM     10  CE2 TRP A   1      24.959 -18.987  51.634  0.00  0.00    +0.000 C 
ATOM     11  CE3 TRP A   1      23.955 -19.588  53.755  0.00  0.00    +0.000 C 
ATOM     12  CZ2 TRP A   1      26.187 -19.514  52.018  0.00  0.00    +0.000 C 
ATOM     13  CZ3 TRP A   1      25.155 -20.180  54.103  0.00  0.00    +0.000 C 
ATOM     14  CH2 TRP A   1      26.261 -20.116  53.252  0.00  0.00    +0.000 C 
ATOM     15  N   PHE A   2      18.712 -19.222  53.661  0.00  0.00    +0.000 N 
ATOM     16  CA  PHE A   2      17.588 -18.955  54.569  0.00  0.00    +0.000 C 
ATOM     17  C   PHE A   2      18.134 -18.678  55.970  0.00  0.00    +0.000 C 
ATOM     18  O   PHE A   2      19.162 -19.224  56.358  0.00  0.00    +0.000 OA
ATOM     19  CB  PHE A   2      16.668 -20.183  54.730  0.00  0.00    +0.000 C 
ATOM     20  CG  PHE A   2      15.715 -20.515  53.625  0.00  0.00    +0.000 A 
ATOM     21  CD1 PHE A   2      15.691 -19.772  52.461  0.00  0.00    +0.000 A 
ATOM     22  CD2 PHE A   2      14.843 -21.584  53.741  0.00  0.00    +0.000 A 
ATOM     23  CE1 PHE A   2      14.831 -20.108  51.428  0.00  0.00    +0.000 A 
ATOM     24  CE2 PHE A   2      13.956 -21.889  52.723  0.00  0.00    +0.000 A 
ATOM     25  CZ  PHE A   2      13.951 -21.146  51.576  0.00  0.00    +0.000 A 
ATOM     26  N   PHE A   3      17.399 -17.902  56.753  0.00  0.00    +0.000 N 
ATOM     27  CA  PHE A   3      17.747 -17.645  58.138  0.00  0.00    +0.000 C 
ATOM     28  C   PHE A   3      16.558 -18.090  58.987  0.00  0.00    +0.000 C 
ATOM     29  O   PHE A   3      15.443 -17.591  58.802  0.00  0.00    +0.000 OA
ATOM     30  CB  PHE A   3      18.083 -16.180  58.383  0.00  0.00    +0.000 C 
ATOM     31  CG  PHE A   3      18.597 -15.946  59.779  0.00  0.00    +0.000 A 
ATOM     32  CD1 PHE A   3      19.932 -16.117  60.079  0.00  0.00    +0.000 A 
ATOM     33  CD2 PHE A   3      17.738 -15.582  60.800  0.00  0.00    +0.000 A 
ATOM     34  CE1 PHE A   3      20.399 -15.912  61.365  0.00  0.00    +0.000 A 
ATOM     35  CE2 PHE A   3      18.213 -15.376  62.090  0.00  0.00    +0.000 A 
ATOM     36  CZ  PHE A   3      19.537 -15.556  62.366  0.00  0.00    +0.000 A 
ATOM     37  H   TRP A   1      21.013 -18.891  49.876  0.00  0.00    +0.000 HD
ATOM     38  H   TRP A   1      19.965 -17.637  50.200  0.00  0.00    +0.000 HD
ATOM     39  H   TRP A   1      19.376 -19.179  49.977  0.00  0.00    +0.000 HD
ATOM     40  H   PHE A   2      19.303 -19.979  53.880  0.00  0.00    +0.000 HD
ATOM     41  H   PHE A   3      16.588 -17.485  56.382  0.00  0.00    +0.000 HD
TER 
REMARK  Name = /data/user_data/xianyang/t3-aimnet-affinity-balanced/L2/P06730/pocket.pdb
REMARK                            x       y       z     vdW  Elec       q    Type
REMARK                         _______ _______ _______ _____ _____    ______ ____
ATOM      1  N   TRP B   1      23.518 -16.494  66.327  0.00  0.00    +0.000 N 
ATOM      2  CA  TRP B   1      23.125 -15.967  65.001  0.00  0.00    +0.000 C 
ATOM      3  C   TRP B   1      23.582 -16.837  63.796  0.00  0.00    +0.000 C 
ATOM      4  O   TRP B   1      22.726 -17.303  63.057  0.00  0.00    +0.000 OA
ATOM      5  CB  TRP B   1      23.551 -14.490  64.802  0.00  0.00    +0.000 C 
ATOM      6  CG  TRP B   1      22.870 -13.828  63.630  0.00  0.00    +0.000 C 
ATOM      7  CD1 TRP B   1      21.664 -13.193  63.637  0.00  0.00    +0.000 C 
ATOM      8  CD2 TRP B   1      23.333 -13.795  62.270  0.00  0.00    +0.000 A 
ATOM      9  NE1 TRP B   1      21.323 -12.811  62.357  0.00  0.00    +0.000 NA
ATOM     10  CE2 TRP B   1      22.354 -13.125  61.508  0.00  0.00    +0.000 A 
ATOM     11  CE3 TRP B   1      24.493 -14.243  61.626  0.00  0.00    +0.000 A 
ATOM     12  CZ2 TRP B   1      22.465 -12.966  60.123  0.00  0.00    +0.000 A 
ATOM     13  CZ3 TRP B   1      24.607 -14.066  60.260  0.00  0.00    +0.000 A 
ATOM     14  CH2 TRP B   1      23.608 -13.423  59.526  0.00  0.00    +0.000 A 
ATOM     15  N   GLN B   2      24.900 -17.078  63.608  0.00  0.00    +0.000 N 
ATOM     16  CA  GLN B   2      25.399 -17.853  62.452  0.00  0.00    +0.000 C 
ATOM     17  C   GLN B   2      24.822 -19.253  62.332  0.00  0.00    +0.000 C 
ATOM     18  O   GLN B   2      24.556 -19.720  61.221  0.00  0.00    +0.000 OA
ATOM     19  CB  GLN B   2      26.931 -17.916  62.441  0.00  0.00    +0.000 C 
ATOM     20  CG  GLN B   2      27.566 -16.566  62.185  0.00  0.00    +0.000 C 
ATOM     21  CD  GLN B   2      29.027 -16.709  61.869  0.00  0.00    +0.000 C 
ATOM     22  OE1 GLN B   2      29.451 -17.645  61.195  0.00  0.00    +0.000 OA
ATOM     23  NE2 GLN B   2      29.814 -15.767  62.334  0.00  0.00    +0.000 N 
ATOM     24  H   TRP B   1      23.217 -17.465  66.410  0.00  0.00    +0.000 HD
ATOM     25  H   TRP B   1      23.076 -15.938  67.059  0.00  0.00    +0.000 HD
ATOM     26  H   TRP B   1      24.532 -16.443  66.426  0.00  0.00    +0.000 HD
ATOM     27  H   GLN B   2      25.547 -16.726  64.261  0.00  0.00    +0.000 HD
ATOM     28  H   GLN B   2      30.782 -15.804  62.160  0.00  0.00    +0.000 HD
ATOM     29  H   GLN B   2      29.436 -15.023  62.856  0.00  0.00    +0.000 HD
TER 
REMARK  Name = /data/user_data/xianyang/t3-aimnet-affinity-balanced/L2/P06730/pocket.pdb
REMARK                            x       y       z     vdW  Elec       q    Type
REMARK                         _______ _______ _______ _____ _____    ______ ____
ATOM      1  N   LEU C   1      21.802 -19.837  59.860  0.00  0.00    +0.000 N 
ATOM      2  CA  LEU C   1      21.941 -19.686  58.411  0.00  0.00    +0.000 C 
ATOM      3  C   LEU C   1      21.931 -21.058  57.768  0.00  0.00    +0.000 C 
ATOM      4  O   LEU C   1      22.490 -22.010  58.317  0.00  0.00    +0.000 OA
ATOM      5  CB  LEU C   1      23.257 -18.979  58.053  0.00  0.00    +0.000 C 
ATOM      6  CG  LEU C   1      23.305 -17.457  58.232  0.00  0.00    +0.000 C 
ATOM      7  CD2 LEU C   1      24.696 -16.946  57.989  0.00  0.00    +0.000 C 
ATOM      8  CD1 LEU C   1      22.318 -16.752  57.285  0.00  0.00    +0.000 C 
ATOM      9  H   LEU C   1      20.922 -20.308  60.070  0.00  0.00    +0.000 HD
ATOM     10  H   LEU C   1      21.808 -18.917  60.300  0.00  0.00    +0.000 HD
ATOM     11  H   LEU C   1      22.579 -20.391  60.220  0.00  0.00    +0.000 HD
TER 
REMARK  Name = /data/user_data/xianyang/t3-aimnet-affinity-balanced/L2/P06730/pocket.pdb
REMARK                            x       y       z     vdW  Elec       q    Type
REMARK                         _______ _______ _______ _____ _____    ______ ____
ATOM      1  N   ASP D   1      13.759 -15.586  56.992  0.00  0.00    +0.000 N 
ATOM      2  CA  ASP D   1      14.325 -14.595  56.068  0.00  0.00    +0.000 C 
ATOM      3  C   ASP D   1      15.107 -15.293  54.929  0.00  0.00    +0.000 C 
ATOM      4  O   ASP D   1      15.572 -16.415  55.122  0.00  0.00    +0.000 OA
ATOM      5  CB  ASP D   1      15.207 -13.601  56.838  0.00  0.00    +0.000 C 
ATOM      6  CG  ASP D   1      14.450 -12.690  57.791  0.00  0.00    +0.000 C 
ATOM      7  OD1 ASP D   1      13.194 -12.653  57.716  0.00  0.00    +0.000 OA
ATOM      8  OD2 ASP D   1      15.111 -11.988  58.595  0.00  0.00    +0.000 OA
ATOM      9  N   TYR D   2      15.199 -14.656  53.724  0.00  0.00    +0.000 N 
ATOM     10  CA  TYR D   2      15.849 -15.204  52.520  0.00  0.00    +0.000 C 
ATOM     11  C   TYR D   2      17.001 -14.270  52.028  0.00  0.00    +0.000 C 
ATOM     12  O   TYR D   2      16.951 -13.070  52.244  0.00  0.00    +0.000 OA
ATOM     13  CB  TYR D   2      14.845 -15.318  51.343  0.00  0.00    +0.000 C 
ATOM     14  CG  TYR D   2      13.633 -16.197  51.551  0.00  0.00    +0.000 A 
ATOM     15  CD1 TYR D   2      13.354 -17.242  50.684  0.00  0.00    +0.000 A 
ATOM     16  CD2 TYR D   2      12.683 -15.891  52.514  0.00  0.00    +0.000 A 
ATOM     17  CE1 TYR D   2      12.225 -18.040  50.851  0.00  0.00    +0.000 A 
ATOM     18  CE2 TYR D   2      11.567 -16.700  52.711  0.00  0.00    +0.000 A 
ATOM     19  CZ  TYR D   2      11.347 -17.782  51.882  0.00  0.00    +0.000 A 
ATOM     20  OH  TYR D   2      10.223 -18.559  52.050  0.00  0.00    +0.000 OA
ATOM     21  N   SER D   3      17.967 -14.834  51.292  0.00  0.00    +0.000 N 
ATOM     22  CA  SER D   3      19.165 -14.171  50.766  0.00  0.00    +0.000 C 
ATOM     23  C   SER D   3      19.558 -14.775  49.439  0.00  0.00    +0.000 C 
ATOM     24  O   SER D   3      19.584 -15.999  49.342  0.00  0.00    +0.000 OA
ATOM     25  CB  SER D   3      20.357 -14.523  51.656  0.00  0.00    +0.000 C 
ATOM     26  OG  SER D   3      20.611 -13.530  52.615  0.00  0.00    +0.000 OA
ATOM     27  H   ASP D   1      13.175 -16.241  56.472  0.00  0.00    +0.000 HD
ATOM     28  H   ASP D   1      13.193 -15.111  57.695  0.00  0.00    +0.000 HD
ATOM     29  H   ASP D   1      14.515 -16.094  57.450  0.00  0.00    +0.000 HD
ATOM     30  H   TYR D   2      14.799 -13.759  53.654  0.00  0.00    +0.000 HD
ATOM     31  H   TYR D   2      10.073 -19.293  51.488  0.00  0.00    +0.000 HD
ATOM     32  H   SER D   3      17.863 -15.790  51.083  0.00  0.00    +0.000 HD
ATOM     33  H   SER D   3      20.824 -12.696  52.168  0.00  0.00    +0.000 HD
TER 
REMARK  Name = /data/user_data/xianyang/t3-aimnet-affinity-balanced/L2/P06730/pocket.pdb
REMARK                            x       y       z     vdW  Elec       q    Type
REMARK                         _______ _______ _______ _____ _____    ______ ____
ATOM      1  N   PHE E   1      23.066 -14.638  47.297  0.00  0.00    +0.000 N 
ATOM      2  CA  PHE E   1      24.428 -14.046  47.243  0.00  0.00    +0.000 C 
ATOM      3  C   PHE E   1      25.252 -14.736  46.196  0.00  0.00    +0.000 C 
ATOM      4  O   PHE E   1      24.997 -15.892  45.886  0.00  0.00    +0.000 OA
ATOM      5  CB  PHE E   1      25.139 -14.196  48.632  0.00  0.00    +0.000 C 
ATOM      6  CG  PHE E   1      24.885 -13.019  49.525  0.00  0.00    +0.000 A 
ATOM      7  CD2 PHE E   1      23.614 -12.772  50.027  0.00  0.00    +0.000 A 
ATOM      8  CD1 PHE E   1      25.891 -12.101  49.794  0.00  0.00    +0.000 A 
ATOM      9  CE2 PHE E   1      23.372 -11.657  50.824  0.00  0.00    +0.000 A 
ATOM     10  CE1 PHE E   1      25.634 -10.976  50.550  0.00  0.00    +0.000 A 
ATOM     11  CZ  PHE E   1      24.379 -10.764  51.066  0.00  0.00    +0.000 A 
ATOM     12  H   PHE E   1      22.614 -14.534  46.389  0.00  0.00    +0.000 HD
ATOM     13  H   PHE E   1      22.514 -14.158  48.008  0.00  0.00    +0.000 HD
ATOM     14  H   PHE E   1      23.135 -15.628  47.532  0.00  0.00    +0.000 HD
TER 
REMARK  Name = /data/user_data/xianyang/t3-aimnet-affinity-balanced/L2/P06730/pocket.pdb
REMARK                            x       y       z     vdW  Elec       q    Type
REMARK                         _______ _______ _______ _____ _____    ______ ____
ATOM      1  N   PRO F   1      26.074 -14.825  53.397  0.00  0.00    +0.000 N 
ATOM      2  CA  PRO F   1      25.254 -13.618  53.632  0.00  0.00    +0.000 C 
ATOM      3  C   PRO F   1      25.402 -13.040  55.036  0.00  0.00    +0.000 C 
ATOM      4  O   PRO F   1      24.463 -13.088  55.831  0.00  0.00    +0.000 OA
ATOM      5  CB  PRO F   1      23.818 -14.127  53.392  0.00  0.00    +0.000 C 
ATOM      6  CG  PRO F   1      23.871 -15.551  53.771  0.00  0.00    +0.000 C 
ATOM      7  CD  PRO F   1      25.249 -16.041  53.382  0.00  0.00    +0.000 C 
ATOM      8  N   MET F   2      26.589 -12.550  55.356  0.00  0.00    +0.000 N 
ATOM      9  CA  MET F   2      26.855 -12.009  56.682  0.00  0.00    +0.000 C 
ATOM     10  C   MET F   2      28.011 -11.012  56.655  0.00  0.00    +0.000 C 
ATOM     11  O   MET F   2      28.939 -11.160  55.857  0.00  0.00    +0.000 OA
ATOM     12  CB  MET F   2      27.114 -13.145  57.691  0.00  0.00    +0.000 C 
ATOM     13  CG  MET F   2      28.305 -14.000  57.347  0.00  0.00    +0.000 C 
ATOM     14  SD  MET F   2      28.554 -15.289  58.596  0.00  0.00    +0.000 S 
ATOM     15  CE  MET F   2      30.246 -15.796  58.194  0.00  0.00    +0.000 C 
ATOM     16  N   TRP F   3      27.942  -9.997  57.522  0.00  0.00    +0.000 N 
ATOM     17  CA  TRP F   3      28.966  -8.946  57.653  0.00  0.00    +0.000 C 
ATOM     18  C   TRP F   3      30.375  -9.512  57.849  0.00  0.00    +0.000 C 
ATOM     19  O   TRP F   3      31.358  -8.877  57.471  0.00  0.00    +0.000 OA
ATOM     20  CB  TRP F   3      28.671  -8.060  58.877  0.00  0.00    +0.000 C 
ATOM     21  CG  TRP F   3      27.304  -7.473  58.924  0.00  0.00    +0.000 C 
ATOM     22  CD1 TRP F   3      26.506  -7.150  57.864  0.00  0.00    +0.000 C 
ATOM     23  CD2 TRP F   3      26.544  -7.197  60.098  0.00  0.00    +0.000 C 
ATOM     24  NE1 TRP F   3      25.317  -6.637  58.311  0.00  0.00    +0.000 NA
ATOM     25  CE2 TRP F   3      25.307  -6.668  59.682  0.00  0.00    +0.000 C 
ATOM     26  CE3 TRP F   3      26.780  -7.370  61.466  0.00  0.00    +0.000 C 
ATOM     27  CZ2 TRP F   3      24.316  -6.301  60.582  0.00  0.00    +0.000 C 
ATOM     28  CZ3 TRP F   3      25.822  -6.947  62.362  0.00  0.00    +0.000 C 
ATOM     29  CH2 TRP F   3      24.609  -6.413  61.919  0.00  0.00    +0.000 C 
ATOM     30  N   GLU F   4      30.464 -10.681  58.468  0.00  0.00    +0.000 N 
ATOM     31  CA  GLU F   4      31.704 -11.375  58.782  0.00  0.00    +0.000 C 
ATOM     32  C   GLU F   4      32.473 -11.853  57.584  0.00  0.00    +0.000 C 
ATOM     33  O   GLU F   4      33.690 -12.034  57.680  0.00  0.00    +0.000 OA
ATOM     34  CB  GLU F   4      31.429 -12.540  59.732  0.00  0.00    +0.000 C 
ATOM     35  CG  GLU F   4      31.022 -12.053  61.111  0.00  0.00    +0.000 C 
ATOM     36  CD  GLU F   4      29.535 -11.884  61.356  0.00  0.00    +0.000 C 
ATOM     37  OE1 GLU F   4      28.757 -11.778  60.379  0.00  0.00    +0.000 OA
ATOM     38  OE2 GLU F   4      29.147 -11.849  62.547  0.00  0.00    +0.000 OA
ATOM     39  H   PRO F   1      26.547 -14.734  52.498  0.00  0.00    +0.000 HD
ATOM     40  H   PRO F   1      26.750 -14.906  54.156  0.00  0.00    +0.000 HD
ATOM     41  H   MET F   2      27.308 -12.551  54.683  0.00  0.00    +0.000 HD
ATOM     42  H   TRP F   3      27.155  -9.949  58.112  0.00  0.00    +0.000 HD
ATOM     43  H   GLU F   4      29.622 -11.115  58.737  0.00  0.00    +0.000 HD
TER 
REMARK  Name = /data/user_data/xianyang/t3-aimnet-affinity-balanced/L2/P06730/pocket.pdb
REMARK                            x       y       z     vdW  Elec       q    Type
REMARK                         _______ _______ _______ _____ _____    ______ ____
ATOM      1  N   ARG G   1      24.786  -1.676  52.639  0.00  0.00    +0.000 N 
ATOM      2  CA  ARG G   1      23.583  -2.027  51.914  0.00  0.00    +0.000 C 
ATOM      3  C   ARG G   1      22.669  -0.866  51.630  0.00  0.00    +0.000 C 
ATOM      4  O   ARG G   1      22.552   0.055  52.432  0.00  0.00    +0.000 OA
ATOM      5  CB  ARG G   1      22.795  -3.083  52.712  0.00  0.00    +0.000 C 
ATOM      6  CG  ARG G   1      22.420  -2.562  54.091  0.00  0.00    +0.000 C 
ATOM      7  CD  ARG G   1      21.476  -3.423  54.862  0.00  0.00    +0.000 C 
ATOM      8  NE  ARG G   1      21.251  -2.840  56.185  0.00  0.00    +0.000 N 
ATOM      9  CZ  ARG G   1      20.507  -3.396  57.135  0.00  0.00    +0.000 C 
ATOM     10  NH1 ARG G   1      19.894  -4.550  56.917  0.00  0.00    +0.000 N 
ATOM     11  NH2 ARG G   1      20.369  -2.798  58.313  0.00  0.00    +0.000 N 
ATOM     12  H   ARG G   1      25.309  -0.977  52.112  0.00  0.00    +0.000 HD
ATOM     13  H   ARG G   1      25.362  -2.508  52.765  0.00  0.00    +0.000 HD
ATOM     14  H   ARG G   1      24.534  -1.296  53.551  0.00  0.00    +0.000 HD
ATOM     15  H   ARG G   1      21.680  -1.977  56.385  0.00  0.00    +0.000 HD
ATOM     16  H   ARG G   1      19.990  -5.002  56.047  0.00  0.00    +0.000 HD
ATOM     17  H   ARG G   1      19.343  -4.956  57.625  0.00  0.00    +0.000 HD
ATOM     18  H   ARG G   1      20.820  -1.940  58.485  0.00  0.00    +0.000 HD
ATOM     19  H   ARG G   1      19.815  -3.213  59.014  0.00  0.00    +0.000 HD
TER 
REMARK  Name = /data/user_data/xianyang/t3-aimnet-affinity-balanced/L2/P06730/pocket.pdb
REMARK                            x       y       z     vdW  Elec       q    Type
REMARK                         _______ _______ _______ _____ _____    ______ ____
ATOM      1  N   VAL H   1      19.094  -9.243  50.507  0.00  0.00    +0.000 N 
ATOM      2  CA  VAL H   1      18.450  -9.887  51.649  0.00  0.00    +0.000 C 
ATOM      3  C   VAL H   1      17.026  -9.388  51.797  0.00  0.00    +0.000 C 
ATOM      4  O   VAL H   1      16.793  -8.192  51.661  0.00  0.00    +0.000 OA
ATOM      5  CB  VAL H   1      19.252  -9.591  52.948  0.00  0.00    +0.000 C 
ATOM      6  CG2 VAL H   1      18.621 -10.262  54.170  0.00  0.00    +0.000 C 
ATOM      7  CG1 VAL H   1      20.701 -10.017  52.802  0.00  0.00    +0.000 C 
ATOM      8  N   VAL H   2      16.080 -10.277  52.115  0.00  0.00    +0.000 N 
ATOM      9  CA  VAL H   2      14.719  -9.858  52.418  0.00  0.00    +0.000 C 
ATOM     10  C   VAL H   2      14.445 -10.262  53.870  0.00  0.00    +0.000 C 
ATOM     11  O   VAL H   2      14.729 -11.397  54.249  0.00  0.00    +0.000 OA
ATOM     12  CB  VAL H   2      13.623 -10.376  51.447  0.00  0.00    +0.000 C 
ATOM     13  CG1 VAL H   2      13.754 -11.872  51.199  0.00  0.00    +0.000 C 
ATOM     14  CG2 VAL H   2      12.225 -10.041  51.984  0.00  0.00    +0.000 C 
ATOM     15  N   ASN H   3      13.997  -9.310  54.700  0.00  0.00    +0.000 N 
ATOM     16  CA  ASN H   3      13.676  -9.549  56.102  0.00  0.00    +0.000 C 
ATOM     17  C   ASN H   3      12.187  -9.464  56.282  0.00  0.00    +0.000 C 
ATOM     18  O   ASN H   3      11.604  -8.407  56.080  0.00  0.00    +0.000 OA
ATOM     19  CB  ASN H   3      14.343  -8.529  57.012  0.00  0.00    +0.000 C 
ATOM     20  CG  ASN H   3      15.839  -8.571  56.932  0.00  0.00    +0.000 C 
ATOM     21  OD1 ASN H   3      16.493  -7.588  56.575  0.00  0.00    +0.000 OA
ATOM     22  ND2 ASN H   3      16.404  -9.715  57.236  0.00  0.00    +0.000 N 
ATOM     23  H   VAL H   1      18.562  -9.442  49.660  0.00  0.00    +0.000 HD
ATOM     24  H   VAL H   1      20.043  -9.602  50.405  0.00  0.00    +0.000 HD
ATOM     25  H   VAL H   1      19.127  -8.235  50.659  0.00  0.00    +0.000 HD
ATOM     26  H   VAL H   2      16.308 -11.234  52.145  0.00  0.00    +0.000 HD
ATOM     27  H   ASN H   3      13.878  -8.400  54.344  0.00  0.00    +0.000 HD
ATOM     28  H   ASN H   3      17.384  -9.805  57.202  0.00  0.00    +0.000 HD
ATOM     29  H   ASN H   3      15.848 -10.484  57.498  0.00  0.00    +0.000 HD
TER 
REMARK  Name = /data/user_data/xianyang/t3-aimnet-affinity-balanced/L2/P06730/pocket.pdb
REMARK                            x       y       z     vdW  Elec       q    Type
REMARK                         _______ _______ _______ _____ _____    ______ ____
ATOM      1  N   ARG I   1       9.286  -9.241  58.664  0.00  0.00    +0.000 N 
ATOM      2  CA  ARG I   1       9.011  -8.870  60.047  0.00  0.00    +0.000 C 
ATOM      3  C   ARG I   1       7.523  -8.604  60.184  0.00  0.00    +0.000 C 
ATOM      4  O   ARG I   1       6.928  -8.000  59.286  0.00  0.00    +0.000 OA
ATOM      5  CB  ARG I   1       9.761  -7.588  60.439  0.00  0.00    +0.000 C 
ATOM      6  CG  ARG I   1      11.273  -7.662  60.331  0.00  0.00    +0.000 C 
ATOM      7  CD  ARG I   1      11.899  -8.266  61.575  0.00  0.00    +0.000 C 
ATOM      8  NE  ARG I   1      13.336  -8.465  61.384  0.00  0.00    +0.000 N 
ATOM      9  CZ  ARG I   1      13.880  -9.566  60.875  0.00  0.00    +0.000 C 
ATOM     10  NH1 ARG I   1      13.115 -10.594  60.527  0.00  0.00    +0.000 N 
ATOM     11  NH2 ARG I   1      15.195  -9.653  60.723  0.00  0.00    +0.000 N 
ATOM     12  H   ARG I   1       8.776 -10.093  58.433  0.00  0.00    +0.000 HD
ATOM     13  H   ARG I   1      10.287  -9.401  58.548  0.00  0.00    +0.000 HD
ATOM     14  H   ARG I   1       8.988  -8.488  58.044  0.00  0.00    +0.000 HD
ATOM     15  H   ARG I   1      13.940  -7.735  61.650  0.00  0.00    +0.000 HD
ATOM     16  H   ARG I   1      13.524 -11.407  60.151  0.00  0.00    +0.000 HD
ATOM     17  H   ARG I   1      12.139 -10.544  60.645  0.00  0.00    +0.000 HD
ATOM     18  H   ARG I   1      15.594 -10.470  60.346  0.00  0.00    +0.000 HD
ATOM     19  H   ARG I   1      15.772  -8.900  60.988  0.00  0.00    +0.000 HD
TER 
REMARK  Name = /data/user_data/xianyang/t3-aimnet-affinity-balanced/L2/P06730/pocket.pdb
REMARK                            x       y       z     vdW  Elec       q    Type
REMARK                         _______ _______ _______ _____ _____    ______ ____
ATOM      1  N   LYS J   1      11.654  -5.663  54.953  0.00  0.00    +0.000 N 
ATOM      2  CA  LYS J   1      12.802  -4.920  54.439  0.00  0.00    +0.000 C 
ATOM      3  C   LYS J   1      13.476  -5.666  53.305  0.00  0.00    +0.000 C 
ATOM      4  O   LYS J   1      13.567  -6.887  53.339  0.00  0.00    +0.000 OA
ATOM      5  CB  LYS J   1      13.839  -4.713  55.553  0.00  0.00    +0.000 C 
ATOM      6  CG  LYS J   1      13.418  -3.748  56.650  0.00  0.00    +0.000 C 
ATOM      7  CD  LYS J   1      14.507  -3.691  57.725  0.00  0.00    +0.000 C 
ATOM      8  CE  LYS J   1      14.083  -2.942  58.958  0.00  0.00    +0.000 C 
ATOM      9  NZ  LYS J   1      15.143  -2.988  60.001  0.00  0.00    +0.000 N 
ATOM     10  H   LYS J   1      10.972  -5.795  54.206  0.00  0.00    +0.000 HD
ATOM     11  H   LYS J   1      11.225  -5.140  55.717  0.00  0.00    +0.000 HD
ATOM     12  H   LYS J   1      11.963  -6.573  55.295  0.00  0.00    +0.000 HD
ATOM     13  H   LYS J   1      15.319  -3.958  60.264  0.00  0.00    +0.000 HD
ATOM     14  H   LYS J   1      14.837  -2.464  60.821  0.00  0.00    +0.000 HD
ATOM     15  H   LYS J   1      16.000  -2.574  59.634  0.00  0.00    +0.000 HD
TER 
REMARK  Name = /data/user_data/xianyang/t3-aimnet-affinity-balanced/L2/P06730/pocket.pdb
REMARK                            x       y       z     vdW  Elec       q    Type
REMARK                         _______ _______ _______ _____ _____    ______ ____
ATOM      1  N   TRP K   1      23.261  -5.659  49.009  0.00  0.00    +0.000 N 
ATOM      2  CA  TRP K   1      24.549  -5.566  49.692  0.00  0.00    +0.000 C 
ATOM      3  C   TRP K   1      25.642  -5.365  48.692  0.00  0.00    +0.000 C 
ATOM      4  O   TRP K   1      25.650  -6.037  47.670  0.00  0.00    +0.000 OA
ATOM      5  CB  TRP K   1      24.833  -6.857  50.480  0.00  0.00    +0.000 C 
ATOM      6  CG  TRP K   1      24.047  -6.999  51.755  0.00  0.00    +0.000 C 
ATOM      7  CD1 TRP K   1      22.777  -6.562  52.000  0.00  0.00    +0.000 C 
ATOM      8  CD2 TRP K   1      24.458  -7.709  52.926  0.00  0.00    +0.000 C 
ATOM      9  NE1 TRP K   1      22.402  -6.898  53.280  0.00  0.00    +0.000 NA
ATOM     10  CE2 TRP K   1      23.427  -7.582  53.878  0.00  0.00    +0.000 C 
ATOM     11  CE3 TRP K   1      25.629  -8.382  53.288  0.00  0.00    +0.000 C 
ATOM     12  CZ2 TRP K   1      23.527  -8.124  55.164  0.00  0.00    +0.000 C 
ATOM     13  CZ3 TRP K   1      25.728  -8.915  54.566  0.00  0.00    +0.000 C 
ATOM     14  CH2 TRP K   1      24.669  -8.823  55.467  0.00  0.00    +0.000 C 
ATOM     15  H   TRP K   1      23.087  -4.797  48.492  0.00  0.00    +0.000 HD
ATOM     16  H   TRP K   1      22.521  -5.798  49.697  0.00  0.00    +0.000 HD
ATOM     17  H   TRP K   1      23.276  -6.447  48.361  0.00  0.00    +0.000 HD
TER 
REMARK  Name = /data/user_data/xianyang/t3-aimnet-affinity-balanced/L2/P06730/pocket.pdb
REMARK                            x       y       z     vdW  Elec       q    Type
REMARK                         _______ _______ _______ _____ _____    ______ ____
ATOM      1  N   THR L   1      26.067  -0.467  61.004  0.00  0.00    +0.000 N 
ATOM      2  CA  THR L   1      24.917  -1.262  61.425  0.00  0.00    +0.000 C 
ATOM      3  C   THR L   1      25.284  -2.103  62.650  0.00  0.00    +0.000 C 
ATOM      4  O   THR L   1      24.538  -2.117  63.616  0.00  0.00    +0.000 OA
ATOM      5  CB  THR L   1      24.423  -2.167  60.306  0.00  0.00    +0.000 C 
ATOM      6  OG1 THR L   1      24.260  -1.416  59.100  0.00  0.00    +0.000 OA
ATOM      7  CG2 THR L   1      23.147  -2.878  60.676  0.00  0.00    +0.000 C 
ATOM      8  N   ALA L   2      26.470  -2.735  62.631  0.00  0.00    +0.000 N 
ATOM      9  CA  ALA L   2      26.991  -3.586  63.696  0.00  0.00    +0.000 C 
ATOM     10  C   ALA L   2      27.377  -2.853  64.979  0.00  0.00    +0.000 C 
ATOM     11  O   ALA L   2      27.544  -3.515  66.003  0.00  0.00    +0.000 OA
ATOM     12  CB  ALA L   2      28.195  -4.364  63.194  0.00  0.00    +0.000 C 
ATOM     13  H   THR L   1      25.815   0.090  60.188  0.00  0.00    +0.000 HD
ATOM     14  H   THR L   1      26.841  -1.088  60.766  0.00  0.00    +0.000 HD
ATOM     15  H   THR L   1      26.349   0.152  61.764  0.00  0.00    +0.000 HD
ATOM     16  H   THR L   1      23.589  -0.728  59.235  0.00  0.00    +0.000 HD
ATOM     17  H   ALA L   2      27.034  -2.614  61.833  0.00  0.00    +0.000 HD
TER 
REMARK  Name = /data/user_data/xianyang/t3-aimnet-affinity-balanced/L2/P06730/pocket.pdb
REMARK                            x       y       z     vdW  Elec       q    Type
REMARK                         _______ _______ _______ _____ _____    ______ ____
ATOM      1  N   LYS M   1      25.712   0.029  66.179  0.00  0.00    +0.000 N 
ATOM      2  CA  LYS M   1      24.511   0.841  66.403  0.00  0.00    +0.000 C 
ATOM      3  C   LYS M   1      24.285   1.272  67.874  0.00  0.00    +0.000 C 
ATOM      4  O   LYS M   1      24.721   0.590  68.812  0.00  0.00    +0.000 OA
ATOM      5  CB  LYS M   1      23.302   0.031  65.897  0.00  0.00    +0.000 C 
ATOM      6  CG  LYS M   1      21.992   0.786  65.761  0.00  0.00    +0.000 C 
ATOM      7  CD  LYS M   1      20.819  -0.192  65.778  0.00  0.00    +0.000 C 
ATOM      8  CE  LYS M   1      19.526   0.440  66.239  0.00  0.00    +0.000 C 
ATOM      9  NZ  LYS M   1      18.872   1.228  65.161  0.00  0.00    +0.000 N 
ATOM     10  H   LYS M   1      25.782  -0.209  65.190  0.00  0.00    +0.000 HD
ATOM     11  H   LYS M   1      25.652  -0.827  66.731  0.00  0.00    +0.000 HD
ATOM     12  H   LYS M   1      26.537   0.558  66.461  0.00  0.00    +0.000 HD
ATOM     13  H   LYS M   1      18.643   0.612  64.381  0.00  0.00    +0.000 HD
ATOM     14  H   LYS M   1      19.507   1.960  64.842  0.00  0.00    +0.000 HD
ATOM     15  H   LYS M   1      18.017   1.653  65.521  0.00  0.00    +0.000 HD
TER 
