REMARK  Name = /data/user_data/xianyang/t3-aimnet-affinity-balanced/L1/P06239/pocket.pdb
REMARK                            x       y       z     vdW  Elec       q    Type
REMARK                         _______ _______ _______ _____ _____    ______ ____
ATOM      1  N   LEU A   1      30.062  35.972  88.205  0.00  0.00    +0.000 N 
ATOM      2  CA  LEU A   1      30.012  36.833  87.024  0.00  0.00    +0.000 C 
ATOM      3  C   LEU A   1      29.757  38.290  87.354  0.00  0.00    +0.000 C 
ATOM      4  O   LEU A   1      30.110  39.141  86.586  0.00  0.00    +0.000 OA
ATOM      5  CB  LEU A   1      28.920  36.356  86.071  0.00  0.00    +0.000 C 
ATOM      6  CG  LEU A   1      29.000  34.881  85.622  0.00  0.00    +0.000 C 
ATOM      7  CD2 LEU A   1      27.692  34.513  84.926  0.00  0.00    +0.000 C 
ATOM      8  CD1 LEU A   1      30.194  34.549  84.674  0.00  0.00    +0.000 C 
ATOM      9  N   GLY A   2      29.043  38.534  88.454  0.00  0.00    +0.000 N 
ATOM     10  CA  GLY A   2      28.697  39.889  88.879  0.00  0.00    +0.000 C 
ATOM     11  C   GLY A   2      28.247  39.871  90.337  0.00  0.00    +0.000 C 
ATOM     12  O   GLY A   2      27.860  38.831  90.871  0.00  0.00    +0.000 OA
ATOM     13  N   ALA A   3      28.377  40.997  91.032  0.00  0.00    +0.000 N 
ATOM     14  CA  ALA A   3      27.977  41.046  92.430  0.00  0.00    +0.000 C 
ATOM     15  C   ALA A   3      27.333  42.364  92.753  0.00  0.00    +0.000 C 
ATOM     16  O   ALA A   3      27.654  43.386  92.154  0.00  0.00    +0.000 OA
ATOM     17  CB  ALA A   3      29.170  40.793  93.359  0.00  0.00    +0.000 C 
ATOM     18  H   LEU A   1      30.236  35.009  87.917  0.00  0.00    +0.000 HD
ATOM     19  H   LEU A   1      29.172  36.023  88.701  0.00  0.00    +0.000 HD
ATOM     20  H   LEU A   1      30.813  36.283  88.821  0.00  0.00    +0.000 HD
ATOM     21  H   GLY A   2      28.738  37.773  89.000  0.00  0.00    +0.000 HD
ATOM     22  H   ALA A   3      28.745  41.801  90.599  0.00  0.00    +0.000 HD
TER 
REMARK  Name = /data/user_data/xianyang/t3-aimnet-affinity-balanced/L1/P06239/pocket.pdb
REMARK                            x       y       z     vdW  Elec       q    Type
REMARK                         _______ _______ _______ _____ _____    ______ ____
ATOM      1  N   VAL B   1      25.577  36.995  90.694  0.00  0.00    +0.000 N 
ATOM      2  CA  VAL B   1      25.275  36.217  89.519  0.00  0.00    +0.000 C 
ATOM      3  C   VAL B   1      26.500  35.388  89.299  0.00  0.00    +0.000 C 
ATOM      4  O   VAL B   1      27.644  35.919  89.313  0.00  0.00    +0.000 OA
ATOM      5  CB  VAL B   1      24.980  37.045  88.216  0.00  0.00    +0.000 C 
ATOM      6  CG1 VAL B   1      24.607  36.055  87.038  0.00  0.00    +0.000 C 
ATOM      7  CG2 VAL B   1      23.823  38.034  88.430  0.00  0.00    +0.000 C 
ATOM      8  H   VAL B   1      24.784  37.596  90.917  0.00  0.00    +0.000 HD
ATOM      9  H   VAL B   1      26.401  37.570  90.518  0.00  0.00    +0.000 HD
ATOM     10  H   VAL B   1      25.760  36.369  91.478  0.00  0.00    +0.000 HD
TER 
REMARK  Name = /data/user_data/xianyang/t3-aimnet-affinity-balanced/L1/P06239/pocket.pdb
REMARK                            x       y       z     vdW  Elec       q    Type
REMARK                         _______ _______ _______ _____ _____    ______ ____
ATOM      1  N   ALA C   1      23.427  30.735  84.117  0.00  0.00    +0.000 N 
ATOM      2  CA  ALA C   1      23.749  31.844  85.016  0.00  0.00    +0.000 C 
ATOM      3  C   ALA C   1      22.807  31.730  86.169  0.00  0.00    +0.000 C 
ATOM      4  O   ALA C   1      21.619  31.496  85.963  0.00  0.00    +0.000 OA
ATOM      5  CB  ALA C   1      23.510  33.201  84.315  0.00  0.00    +0.000 C 
ATOM      6  H   ALA C   1      24.045  30.764  83.306  0.00  0.00    +0.000 HD
ATOM      7  H   ALA C   1      22.458  30.817  83.809  0.00  0.00    +0.000 HD
ATOM      8  H   ALA C   1      23.554  29.851  84.609  0.00  0.00    +0.000 HD
TER 
REMARK  Name = /data/user_data/xianyang/t3-aimnet-affinity-balanced/L1/P06239/pocket.pdb
REMARK                            x       y       z     vdW  Elec       q    Type
REMARK                         _______ _______ _______ _____ _____    ______ ____
ATOM      1  N   LYS D   1      21.397  33.713  89.473  0.00  0.00    +0.000 N 
ATOM      2  CA  LYS D   1      21.250  34.941  90.240  0.00  0.00    +0.000 C 
ATOM      3  C   LYS D   1      20.778  34.571  91.660  0.00  0.00    +0.000 C 
ATOM      4  O   LYS D   1      19.717  33.951  91.823  0.00  0.00    +0.000 OA
ATOM      5  CB  LYS D   1      20.196  35.824  89.540  0.00  0.00    +0.000 C 
ATOM      6  CG  LYS D   1      20.151  37.282  90.025  0.00  0.00    +0.000 C 
ATOM      7  CD  LYS D   1      19.145  38.096  89.197  0.00  0.00    +0.000 C 
ATOM      8  CE  LYS D   1      19.180  39.574  89.551  0.00  0.00    +0.000 C 
ATOM      9  NZ  LYS D   1      18.104  40.361  88.885  0.00  0.00    +0.000 N 
ATOM     10  H   LYS D   1      21.709  33.938  88.528  0.00  0.00    +0.000 HD
ATOM     11  H   LYS D   1      20.500  33.230  89.429  0.00  0.00    +0.000 HD
ATOM     12  H   LYS D   1      22.085  33.110  89.924  0.00  0.00    +0.000 HD
ATOM     13  H   LYS D   1      17.193  40.017  89.189  0.00  0.00    +0.000 HD
ATOM     14  H   LYS D   1      18.185  40.259  87.873  0.00  0.00    +0.000 HD
ATOM     15  H   LYS D   1      18.197  41.345  89.136  0.00  0.00    +0.000 HD
TER 
REMARK  Name = /data/user_data/xianyang/t3-aimnet-affinity-balanced/L1/P06239/pocket.pdb
REMARK                            x       y       z     vdW  Elec       q    Type
REMARK                         _______ _______ _______ _____ _____    ______ ____
ATOM      1  N   GLU E   1      10.616  39.149  88.967  0.00  0.00    +0.000 N 
ATOM      2  CA  GLU E   1      11.337  39.210  87.702  0.00  0.00    +0.000 C 
ATOM      3  C   GLU E   1      11.243  37.890  86.941  0.00  0.00    +0.000 C 
ATOM      4  O   GLU E   1      11.074  37.858  85.713  0.00  0.00    +0.000 OA
ATOM      5  CB  GLU E   1      12.823  39.550  87.924  0.00  0.00    +0.000 C 
ATOM      6  CG  GLU E   1      13.514  40.087  86.624  0.00  0.00    +0.000 C 
ATOM      7  CD  GLU E   1      15.010  39.853  86.585  0.00  0.00    +0.000 C 
ATOM      8  OE2 GLU E   1      15.609  39.713  87.685  0.00  0.00    +0.000 OA
ATOM      9  OE1 GLU E   1      15.592  39.825  85.452  0.00  0.00    +0.000 OA
ATOM     10  H   GLU E   1       9.637  38.923  88.790  0.00  0.00    +0.000 HD
ATOM     11  H   GLU E   1      10.677  40.052  89.437  0.00  0.00    +0.000 HD
ATOM     12  H   GLU E   1      11.030  38.429  89.560  0.00  0.00    +0.000 HD
TER 
REMARK  Name = /data/user_data/xianyang/t3-aimnet-affinity-balanced/L1/P06239/pocket.pdb
REMARK                            x       y       z     vdW  Elec       q    Type
REMARK                         _______ _______ _______ _____ _____    ______ ____
ATOM      1  N   VAL F   1      17.114  37.172  77.153  0.00  0.00    +0.000 N 
ATOM      2  CA  VAL F   1      17.729  36.170  78.009  0.00  0.00    +0.000 C 
ATOM      3  C   VAL F   1      16.589  35.341  78.595  0.00  0.00    +0.000 C 
ATOM      4  O   VAL F   1      15.607  35.898  79.118  0.00  0.00    +0.000 OA
ATOM      5  CB  VAL F   1      18.612  36.847  79.115  0.00  0.00    +0.000 C 
ATOM      6  CG2 VAL F   1      18.976  35.830  80.239  0.00  0.00    +0.000 C 
ATOM      7  CG1 VAL F   1      19.908  37.376  78.452  0.00  0.00    +0.000 C 
ATOM      8  H   VAL F   1      16.546  36.710  76.443  0.00  0.00    +0.000 HD
ATOM      9  H   VAL F   1      17.842  37.725  76.700  0.00  0.00    +0.000 HD
ATOM     10  H   VAL F   1      16.523  37.784  77.716  0.00  0.00    +0.000 HD
TER 
REMARK  Name = /data/user_data/xianyang/t3-aimnet-affinity-balanced/L1/P06239/pocket.pdb
REMARK                            x       y       z     vdW  Elec       q    Type
REMARK                         _______ _______ _______ _____ _____    ______ ____
ATOM      1  N   THR G   1      19.069  31.406  84.672  0.00  0.00    +0.000 N 
ATOM      2  CA  THR G   1      18.801  31.849  83.327  0.00  0.00    +0.000 C 
ATOM      3  C   THR G   1      19.836  31.360  82.341  0.00  0.00    +0.000 C 
ATOM      4  O   THR G   1      20.829  30.707  82.705  0.00  0.00    +0.000 OA
ATOM      5  CB  THR G   1      18.795  33.443  83.208  0.00  0.00    +0.000 C 
ATOM      6  OG1 THR G   1      20.135  33.944  83.317  0.00  0.00    +0.000 OA
ATOM      7  CG2 THR G   1      17.941  34.094  84.309  0.00  0.00    +0.000 C 
ATOM      8  N   GLU G   2      19.546  31.668  81.073  0.00  0.00    +0.000 N 
ATOM      9  CA  GLU G   2      20.406  31.390  79.925  0.00  0.00    +0.000 C 
ATOM     10  C   GLU G   2      21.746  32.105  80.164  0.00  0.00    +0.000 C 
ATOM     11  O   GLU G   2      21.770  33.266  80.625  0.00  0.00    +0.000 OA
ATOM     12  CB  GLU G   2      19.697  32.000  78.689  0.00  0.00    +0.000 C 
ATOM     13  CG  GLU G   2      20.403  31.836  77.334  0.00  0.00    +0.000 C 
ATOM     14  CD  GLU G   2      19.526  32.312  76.153  0.00  0.00    +0.000 C 
ATOM     15  OE2 GLU G   2      18.590  33.110  76.366  0.00  0.00    +0.000 OA
ATOM     16  OE1 GLU G   2      19.786  31.895  74.992  0.00  0.00    +0.000 OA
ATOM     17  N   TYR G   3      22.845  31.425  79.833  0.00  0.00    +0.000 N 
ATOM     18  CA  TYR G   3      24.194  31.946  79.996  0.00  0.00    +0.000 C 
ATOM     19  C   TYR G   3      24.679  32.630  78.718  0.00  0.00    +0.000 C 
ATOM     20  O   TYR G   3      24.588  32.055  77.646  0.00  0.00    +0.000 OA
ATOM     21  CB  TYR G   3      25.127  30.784  80.307  0.00  0.00    +0.000 C 
ATOM     22  CG  TYR G   3      26.586  31.175  80.412  0.00  0.00    +0.000 A 
ATOM     23  CD1 TYR G   3      27.507  30.641  79.536  0.00  0.00    +0.000 A 
ATOM     24  CD2 TYR G   3      27.032  32.056  81.395  0.00  0.00    +0.000 A 
ATOM     25  CE1 TYR G   3      28.838  30.963  79.622  0.00  0.00    +0.000 A 
ATOM     26  CE2 TYR G   3      28.398  32.393  81.499  0.00  0.00    +0.000 A 
ATOM     27  CZ  TYR G   3      29.282  31.831  80.592  0.00  0.00    +0.000 A 
ATOM     28  OH  TYR G   3      30.605  32.172  80.614  0.00  0.00    +0.000 OA
ATOM     29  N   MET G   4      25.230  33.826  78.851  0.00  0.00    +0.000 N 
ATOM     30  CA  MET G   4      25.733  34.612  77.702  0.00  0.00    +0.000 C 
ATOM     31  C   MET G   4      27.225  34.826  77.917  0.00  0.00    +0.000 C 
ATOM     32  O   MET G   4      27.678  35.630  78.741  0.00  0.00    +0.000 OA
ATOM     33  CB  MET G   4      24.936  35.929  77.662  0.00  0.00    +0.000 C 
ATOM     34  CG  MET G   4      23.415  35.686  77.475  0.00  0.00    +0.000 C 
ATOM     35  SD  MET G   4      23.081  34.959  75.864  0.00  0.00    +0.000 S 
ATOM     36  CE  MET G   4      23.496  36.172  74.813  0.00  0.00    +0.000 C 
ATOM     37  N   GLU G   5      27.998  34.004  77.225  0.00  0.00    +0.000 N 
ATOM     38  CA  GLU G   5      29.433  33.933  77.394  0.00  0.00    +0.000 C 
ATOM     39  C   GLU G   5      30.271  35.225  77.440  0.00  0.00    +0.000 C 
ATOM     40  O   GLU G   5      31.225  35.342  78.238  0.00  0.00    +0.000 OA
ATOM     41  CB  GLU G   5      29.989  32.986  76.317  0.00  0.00    +0.000 C 
ATOM     42  CG  GLU G   5      31.462  32.922  76.271  0.00  0.00    +0.000 C 
ATOM     43  CD  GLU G   5      31.934  31.545  76.529  0.00  0.00    +0.000 C 
ATOM     44  OE2 GLU G   5      32.143  31.198  77.738  0.00  0.00    +0.000 OA
ATOM     45  OE1 GLU G   5      31.959  30.741  75.562  0.00  0.00    +0.000 OA
ATOM     46  N   ASN G   6      29.928  36.181  76.579  0.00  0.00    +0.000 N 
ATOM     47  CA  ASN G   6      30.664  37.418  76.483  0.00  0.00    +0.000 C 
ATOM     48  C   ASN G   6      30.173  38.555  77.364  0.00  0.00    +0.000 C 
ATOM     49  O   ASN G   6      30.599  39.689  77.211  0.00  0.00    +0.000 OA
ATOM     50  CB  ASN G   6      30.812  37.808  74.991  0.00  0.00    +0.000 C 
ATOM     51  CG  ASN G   6      31.833  36.914  74.270  0.00  0.00    +0.000 C 
ATOM     52  OD1 ASN G   6      32.960  36.707  74.772  0.00  0.00    +0.000 OA
ATOM     53  ND2 ASN G   6      31.452  36.346  73.151  0.00  0.00    +0.000 N 
ATOM     54  N   GLY G   7      29.238  38.237  78.269  0.00  0.00    +0.000 N 
ATOM     55  CA  GLY G   7      28.783  39.238  79.235  0.00  0.00    +0.000 C 
ATOM     56  C   GLY G   7      28.136  40.486  78.701  0.00  0.00    +0.000 C 
ATOM     57  O   GLY G   7      27.537  40.429  77.649  0.00  0.00    +0.000 OA
ATOM     58  N   SER G   8      28.234  41.597  79.422  0.00  0.00    +0.000 N 
ATOM     59  CA  SER G   8      27.601  42.830  78.975  0.00  0.00    +0.000 C 
ATOM     60  C   SER G   8      28.238  43.441  77.759  0.00  0.00    +0.000 C 
ATOM     61  O   SER G   8      29.475  43.522  77.636  0.00  0.00    +0.000 OA
ATOM     62  CB  SER G   8      27.551  43.892  80.118  0.00  0.00    +0.000 C 
ATOM     63  OG  SER G   8      26.697  43.489  81.181  0.00  0.00    +0.000 OA
ATOM     64  H   THR G   1      19.063  30.386  84.702  0.00  0.00    +0.000 HD
ATOM     65  H   THR G   1      18.351  31.768  85.299  0.00  0.00    +0.000 HD
ATOM     66  H   THR G   1      19.983  31.750  84.967  0.00  0.00    +0.000 HD
ATOM     67  H   THR G   1      20.498  33.710  84.186  0.00  0.00    +0.000 HD
ATOM     68  H   GLU G   2      18.687  32.117  80.899  0.00  0.00    +0.000 HD
ATOM     69  H   TYR G   3      22.738  30.521  79.458  0.00  0.00    +0.000 HD
ATOM     70  H   TYR G   3      31.198  31.789  79.998  0.00  0.00    +0.000 HD
ATOM     71  H   MET G   4      25.309  34.210  79.754  0.00  0.00    +0.000 HD
ATOM     72  H   GLU G   5      27.575  33.411  76.562  0.00  0.00    +0.000 HD
ATOM     73  H   ASN G   6      29.151  36.040  75.992  0.00  0.00    +0.000 HD
ATOM     74  H   ASN G   6      32.075  35.765  72.657  0.00  0.00    +0.000 HD
ATOM     75  H   ASN G   6      30.543  36.500  72.805  0.00  0.00    +0.000 HD
ATOM     76  H   GLY G   7      28.857  37.329  78.284  0.00  0.00    +0.000 HD
ATOM     77  H   SER G   8      28.739  41.587  80.267  0.00  0.00    +0.000 HD
ATOM     78  H   SER G   8      25.793  43.383  80.847  0.00  0.00    +0.000 HD
TER 
REMARK  Name = /data/user_data/xianyang/t3-aimnet-affinity-balanced/L1/P06239/pocket.pdb
REMARK                            x       y       z     vdW  Elec       q    Type
REMARK                         _______ _______ _______ _____ _____    ______ ____
ATOM      1  N   VAL H   1      28.395  46.537  76.950  0.00  0.00    +0.000 N 
ATOM      2  CA  VAL H   1      29.227  47.692  77.284  0.00  0.00    +0.000 C 
ATOM      3  C   VAL H   1      30.668  47.301  77.634  0.00  0.00    +0.000 C 
ATOM      4  O   VAL H   1      31.578  48.063  77.344  0.00  0.00    +0.000 OA
ATOM      5  CB  VAL H   1      28.601  48.567  78.411  0.00  0.00    +0.000 C 
ATOM      6  CG2 VAL H   1      28.897  47.976  79.791  0.00  0.00    +0.000 C 
ATOM      7  CG1 VAL H   1      29.125  49.976  78.262  0.00  0.00    +0.000 C 
ATOM      8  N   ASP H   2      30.850  46.118  78.250  0.00  0.00    +0.000 N 
ATOM      9  CA  ASP H   2      32.183  45.599  78.576  0.00  0.00    +0.000 C 
ATOM     10  C   ASP H   2      32.814  44.878  77.374  0.00  0.00    +0.000 C 
ATOM     11  O   ASP H   2      34.010  45.097  77.041  0.00  0.00    +0.000 OA
ATOM     12  CB  ASP H   2      32.137  44.627  79.786  0.00  0.00    +0.000 C 
ATOM     13  CG  ASP H   2      31.682  45.309  81.073  0.00  0.00    +0.000 C 
ATOM     14  OD1 ASP H   2      31.907  46.527  81.226  0.00  0.00    +0.000 OA
ATOM     15  OD2 ASP H   2      31.114  44.620  81.945  0.00  0.00    +0.000 OA
ATOM     16  H   VAL H   1      28.844  45.997  76.211  0.00  0.00    +0.000 HD
ATOM     17  H   VAL H   1      27.481  46.857  76.630  0.00  0.00    +0.000 HD
ATOM     18  H   VAL H   1      28.279  45.951  77.777  0.00  0.00    +0.000 HD
ATOM     19  H   ASP H   2      30.060  45.582  78.490  0.00  0.00    +0.000 HD
TER 
REMARK  Name = /data/user_data/xianyang/t3-aimnet-affinity-balanced/L1/P06239/pocket.pdb
REMARK                            x       y       z     vdW  Elec       q    Type
REMARK                         _______ _______ _______ _____ _____    ______ ____
ATOM      1  N   ALA I   1      24.815  48.157  79.278  0.00  0.00    +0.000 N 
ATOM      2  CA  ALA I   1      25.163  47.268  80.399  0.00  0.00    +0.000 C 
ATOM      3  C   ALA I   1      24.161  46.098  80.500  0.00  0.00    +0.000 C 
ATOM      4  O   ALA I   1      24.511  44.968  80.918  0.00  0.00    +0.000 OA
ATOM      5  CB  ALA I   1      25.235  48.038  81.749  0.00  0.00    +0.000 C 
ATOM      6  N   ASN I   2      22.935  46.343  80.058  0.00  0.00    +0.000 N 
ATOM      7  CA  ASN I   2      21.888  45.330  80.097  0.00  0.00    +0.000 C 
ATOM      8  C   ASN I   2      21.616  44.538  78.810  0.00  0.00    +0.000 C 
ATOM      9  O   ASN I   2      20.531  43.978  78.607  0.00  0.00    +0.000 OA
ATOM     10  CB  ASN I   2      20.623  45.916  80.696  0.00  0.00    +0.000 C 
ATOM     11  CG  ASN I   2      20.795  46.215  82.153  0.00  0.00    +0.000 C 
ATOM     12  OD1 ASN I   2      21.544  45.516  82.817  0.00  0.00    +0.000 OA
ATOM     13  ND2 ASN I   2      20.176  47.284  82.642  0.00  0.00    +0.000 N 
ATOM     14  N   ILE I   3      22.594  44.558  77.910  0.00  0.00    +0.000 N 
ATOM     15  CA  ILE I   3      22.513  43.778  76.702  0.00  0.00    +0.000 C 
ATOM     16  C   ILE I   3      23.630  42.766  76.896  0.00  0.00    +0.000 C 
ATOM     17  O   ILE I   3      24.759  43.164  77.265  0.00  0.00    +0.000 OA
ATOM     18  CB  ILE I   3      22.806  44.620  75.434  0.00  0.00    +0.000 C 
ATOM     19  CG1 ILE I   3      21.740  45.735  75.298  0.00  0.00    +0.000 C 
ATOM     20  CG2 ILE I   3      22.870  43.667  74.213  0.00  0.00    +0.000 C 
ATOM     21  CD1 ILE I   3      20.271  45.186  75.440  0.00  0.00    +0.000 C 
ATOM     22  N   LEU I   4      23.310  41.491  76.754  0.00  0.00    +0.000 N 
ATOM     23  CA  LEU I   4      24.310  40.410  76.951  0.00  0.00    +0.000 C 
ATOM     24  C   LEU I   4      24.729  39.871  75.607  0.00  0.00    +0.000 C 
ATOM     25  O   LEU I   4      23.922  39.893  74.657  0.00  0.00    +0.000 OA
ATOM     26  CB  LEU I   4      23.697  39.300  77.849  0.00  0.00    +0.000 C 
ATOM     27  CG  LEU I   4      24.000  39.250  79.342  0.00  0.00    +0.000 C 
ATOM     28  CD1 LEU I   4      24.465  40.553  79.905  0.00  0.00    +0.000 C 
ATOM     29  CD2 LEU I   4      22.953  38.500  80.228  0.00  0.00    +0.000 C 
ATOM     30  H   ALA I   1      24.778  47.616  78.414  0.00  0.00    +0.000 HD
ATOM     31  H   ALA I   1      25.521  48.888  79.192  0.00  0.00    +0.000 HD
ATOM     32  H   ALA I   1      23.905  48.583  79.452  0.00  0.00    +0.000 HD
ATOM     33  H   ASN I   2      22.726  47.233  79.694  0.00  0.00    +0.000 HD
ATOM     34  H   ASN I   2      19.581  47.815  82.065  0.00  0.00    +0.000 HD
ATOM     35  H   ASN I   2      20.312  47.545  83.582  0.00  0.00    +0.000 HD
ATOM     36  H   ILE I   3      23.388  45.116  78.072  0.00  0.00    +0.000 HD
ATOM     37  H   LEU I   4      22.386  41.252  76.512  0.00  0.00    +0.000 HD
TER 
REMARK  Name = /data/user_data/xianyang/t3-aimnet-affinity-balanced/L1/P06239/pocket.pdb
REMARK                            x       y       z     vdW  Elec       q    Type
REMARK                         _______ _______ _______ _____ _____    ______ ____
ATOM      1  N   ALA J   1      18.600  41.753  78.665  0.00  0.00    +0.000 N 
ATOM      2  CA  ALA J   1      18.646  41.193  79.985  0.00  0.00    +0.000 C 
ATOM      3  C   ALA J   1      18.171  42.187  81.075  0.00  0.00    +0.000 C 
ATOM      4  O   ALA J   1      17.897  43.391  80.826  0.00  0.00    +0.000 OA
ATOM      5  CB  ALA J   1      20.124  40.726  80.309  0.00  0.00    +0.000 C 
ATOM      6  N   ASP J   2      18.143  41.662  82.287  0.00  0.00    +0.000 N 
ATOM      7  CA  ASP J   2      17.753  42.393  83.495  0.00  0.00    +0.000 C 
ATOM      8  C   ASP J   2      16.390  43.016  83.401  0.00  0.00    +0.000 C 
ATOM      9  O   ASP J   2      16.241  44.204  83.113  0.00  0.00    +0.000 OA
ATOM     10  CB  ASP J   2      18.777  43.460  83.844  0.00  0.00    +0.000 C 
ATOM     11  CG  ASP J   2      18.576  44.005  85.266  0.00  0.00    +0.000 C 
ATOM     12  OD1 ASP J   2      19.508  44.625  85.778  0.00  0.00    +0.000 OA
ATOM     13  OD2 ASP J   2      17.515  43.747  85.882  0.00  0.00    +0.000 OA
ATOM     14  N   PHE J   3      15.384  42.209  83.699  0.00  0.00    +0.000 N 
ATOM     15  CA  PHE J   3      13.996  42.627  83.655  0.00  0.00    +0.000 C 
ATOM     16  C   PHE J   3      13.459  43.104  85.023  0.00  0.00    +0.000 C 
ATOM     17  O   PHE J   3      12.281  43.006  85.287  0.00  0.00    +0.000 OA
ATOM     18  CB  PHE J   3      13.180  41.433  83.124  0.00  0.00    +0.000 C 
ATOM     19  CG  PHE J   3      13.564  41.017  81.709  0.00  0.00    +0.000 A 
ATOM     20  CD1 PHE J   3      12.949  41.607  80.607  0.00  0.00    +0.000 A 
ATOM     21  CD2 PHE J   3      14.592  40.111  81.489  0.00  0.00    +0.000 A 
ATOM     22  CE1 PHE J   3      13.380  41.293  79.283  0.00  0.00    +0.000 A 
ATOM     23  CE2 PHE J   3      15.013  39.802  80.166  0.00  0.00    +0.000 A 
ATOM     24  CZ  PHE J   3      14.408  40.400  79.082  0.00  0.00    +0.000 A 
ATOM     25  H   ALA J   1      18.922  41.059  77.990  0.00  0.00    +0.000 HD
ATOM     26  H   ALA J   1      19.204  42.574  78.623  0.00  0.00    +0.000 HD
ATOM     27  H   ALA J   1      17.642  42.024  78.444  0.00  0.00    +0.000 HD
ATOM     28  H   ASP J   2      18.401  40.717  82.385  0.00  0.00    +0.000 HD
ATOM     29  H   PHE J   3      15.587  41.283  83.963  0.00  0.00    +0.000 HD
TER 
