REMARK  Name = /data/user_data/xianyang/t3-aimnet-affinity-balanced/L3/O14638/pocket.pdb
REMARK                            x       y       z     vdW  Elec       q    Type
REMARK                         _______ _______ _______ _____ _____    ______ ____
ATOM      1  N   ASP A   1      -9.088 -21.261 -15.749  0.00  0.00    +0.000 N 
ATOM      2  CA  ASP A   1      -9.433 -22.663 -15.580  0.00  0.00    +0.000 C 
ATOM      3  C   ASP A   1     -10.221 -22.862 -14.288  0.00  0.00    +0.000 C 
ATOM      4  O   ASP A   1      -9.791 -22.433 -13.221  0.00  0.00    +0.000 OA
ATOM      5  CB  ASP A   1      -8.206 -23.555 -15.666  0.00  0.00    +0.000 C 
ATOM      6  CG  ASP A   1      -8.496 -25.011 -15.997  0.00  0.00    +0.000 C 
ATOM      7  OD2 ASP A   1      -9.208 -25.664 -15.207  0.00  0.00    +0.000 OA
ATOM      8  OD1 ASP A   1      -8.026 -25.475 -17.056  0.00  0.00    +0.000 OA
ATOM      9  H   ASP A   1      -8.562 -21.142 -16.615  0.00  0.00    +0.000 HD
ATOM     10  H   ASP A   1      -8.518 -20.954 -14.961  0.00  0.00    +0.000 HD
ATOM     11  H   ASP A   1      -9.941 -20.703 -15.790  0.00  0.00    +0.000 HD
TER 
REMARK  Name = /data/user_data/xianyang/t3-aimnet-affinity-balanced/L3/O14638/pocket.pdb
REMARK                            x       y       z     vdW  Elec       q    Type
REMARK                         _______ _______ _______ _____ _____    ______ ____
ATOM      1  N   THR B   1     -16.263 -32.963 -18.254  0.00  0.00    +0.000 N 
ATOM      2  CA  THR B   1     -15.978 -31.568 -17.959  0.00  0.00    +0.000 C 
ATOM      3  C   THR B   1     -14.535 -31.444 -17.468  0.00  0.00    +0.000 C 
ATOM      4  O   THR B   1     -14.285 -31.119 -16.307  0.00  0.00    +0.000 OA
ATOM      5  CB  THR B   1     -17.003 -31.039 -16.954  0.00  0.00    +0.000 C 
ATOM      6  OG1 THR B   1     -18.078 -31.974 -16.931  0.00  0.00    +0.000 OA
ATOM      7  CG2 THR B   1     -17.548 -29.674 -17.336  0.00  0.00    +0.000 C 
ATOM      8  N   LYS B   2     -13.594 -31.697 -18.387  0.00  0.00    +0.000 N 
ATOM      9  CA  LYS B   2     -12.173 -31.768 -18.083  0.00  0.00    +0.000 C 
ATOM     10  C   LYS B   2     -11.430 -30.650 -18.812  0.00  0.00    +0.000 C 
ATOM     11  O   LYS B   2     -11.938 -30.094 -19.785  0.00  0.00    +0.000 OA
ATOM     12  CB  LYS B   2     -11.644 -33.158 -18.460  0.00  0.00    +0.000 C 
ATOM     13  CG  LYS B   2     -12.124 -34.322 -17.595  0.00  0.00    +0.000 C 
ATOM     14  CD  LYS B   2     -11.576 -34.293 -16.172  0.00  0.00    +0.000 C 
ATOM     15  CE  LYS B   2     -12.003 -35.461 -15.340  0.00  0.00    +0.000 C 
ATOM     16  NZ  LYS B   2     -11.411 -35.401 -14.001  0.00  0.00    +0.000 N 
ATOM     17  N   THR B   3     -10.212 -30.354 -18.336  0.00  0.00    +0.000 N 
ATOM     18  CA  THR B   3      -9.439 -29.198 -18.767  0.00  0.00    +0.000 C 
ATOM     19  C   THR B   3      -9.110 -29.271 -20.259  0.00  0.00    +0.000 C 
ATOM     20  O   THR B   3      -9.297 -28.289 -20.974  0.00  0.00    +0.000 OA
ATOM     21  CB  THR B   3      -8.191 -29.023 -17.897  0.00  0.00    +0.000 C 
ATOM     22  OG1 THR B   3      -7.623 -27.762 -18.243  0.00  0.00    +0.000 OA
ATOM     23  CG2 THR B   3      -7.162 -30.122 -18.092  0.00  0.00    +0.000 C 
ATOM     24  N   PHE B   4      -8.630 -30.436 -20.718  0.00  0.00    +0.000 N 
ATOM     25  CA  PHE B   4      -8.060 -30.578 -22.052  0.00  0.00    +0.000 C 
ATOM     26  C   PHE B   4      -9.142 -30.714 -23.124  0.00  0.00    +0.000 C 
ATOM     27  O   PHE B   4      -9.082 -30.002 -24.125  0.00  0.00    +0.000 OA
ATOM     28  CB  PHE B   4      -6.931 -31.609 -22.156  0.00  0.00    +0.000 C 
ATOM     29  CG  PHE B   4      -5.529 -31.014 -22.183  0.00  0.00    +0.000 A 
ATOM     30  CD2 PHE B   4      -4.989 -30.392 -21.062  0.00  0.00    +0.000 A 
ATOM     31  CD1 PHE B   4      -4.747 -31.093 -23.332  0.00  0.00    +0.000 A 
ATOM     32  CE2 PHE B   4      -3.710 -29.854 -21.095  0.00  0.00    +0.000 A 
ATOM     33  CE1 PHE B   4      -3.467 -30.558 -23.359  0.00  0.00    +0.000 A 
ATOM     34  CZ  PHE B   4      -2.951 -29.939 -22.242  0.00  0.00    +0.000 A 
ATOM     35  H   THR B   1     -15.579 -33.315 -18.924  0.00  0.00    +0.000 HD
ATOM     36  H   THR B   1     -17.200 -33.042 -18.650  0.00  0.00    +0.000 HD
ATOM     37  H   THR B   1     -16.210 -33.510 -17.395  0.00  0.00    +0.000 HD
ATOM     38  H   THR B   1     -18.471 -32.036 -17.816  0.00  0.00    +0.000 HD
ATOM     39  H   LYS B   2     -13.879 -31.843 -19.318  0.00  0.00    +0.000 HD
ATOM     40  H   LYS B   2     -10.394 -35.424 -14.077  0.00  0.00    +0.000 HD
ATOM     41  H   LYS B   2     -11.729 -36.200 -13.453  0.00  0.00    +0.000 HD
ATOM     42  H   LYS B   2     -11.698 -34.537 -13.541  0.00  0.00    +0.000 HD
ATOM     43  H   THR B   3      -9.819 -30.951 -17.658  0.00  0.00    +0.000 HD
ATOM     44  H   THR B   3      -7.380 -27.764 -19.182  0.00  0.00    +0.000 HD
ATOM     45  H   PHE B   4      -8.664 -31.226 -20.131  0.00  0.00    +0.000 HD
TER 
REMARK  Name = /data/user_data/xianyang/t3-aimnet-affinity-balanced/L3/O14638/pocket.pdb
REMARK                            x       y       z     vdW  Elec       q    Type
REMARK                         _______ _______ _______ _____ _____    ______ ____
ATOM      1  N   ASN C   1      -8.239 -35.996 -20.456  0.00  0.00    +0.000 N 
ATOM      2  CA  ASN C   1      -6.884 -35.625 -20.078  0.00  0.00    +0.000 C 
ATOM      3  C   ASN C   1      -6.008 -36.876 -20.063  0.00  0.00    +0.000 C 
ATOM      4  O   ASN C   1      -4.799 -36.795 -20.275  0.00  0.00    +0.000 OA
ATOM      5  CB  ASN C   1      -6.825 -34.957 -18.707  0.00  0.00    +0.000 C 
ATOM      6  CG  ASN C   1      -7.572 -33.646 -18.650  0.00  0.00    +0.000 C 
ATOM      7  OD1 ASN C   1      -7.362 -32.770 -19.495  0.00  0.00    +0.000 OA
ATOM      8  ND2 ASN C   1      -8.439 -33.489 -17.661  0.00  0.00    +0.000 N 
ATOM      9  H   ASN C   1      -8.227 -36.437 -21.376  0.00  0.00    +0.000 HD
ATOM     10  H   ASN C   1      -8.824 -35.161 -20.487  0.00  0.00    +0.000 HD
ATOM     11  H   ASN C   1      -8.616 -36.650 -19.770  0.00  0.00    +0.000 HD
ATOM     12  H   ASN C   1      -8.950 -32.651 -17.583  0.00  0.00    +0.000 HD
ATOM     13  H   ASN C   1      -8.573 -34.210 -17.004  0.00  0.00    +0.000 HD
TER 
REMARK  Name = /data/user_data/xianyang/t3-aimnet-affinity-balanced/L3/O14638/pocket.pdb
REMARK                            x       y       z     vdW  Elec       q    Type
REMARK                         _______ _______ _______ _____ _____    ______ ____
ATOM      1  N   LEU D   1      -1.013 -35.779 -19.322  0.00  0.00    +0.000 N 
ATOM      2  CA  LEU D   1      -0.648 -34.373 -19.377  0.00  0.00    +0.000 C 
ATOM      3  C   LEU D   1       0.847 -34.209 -19.121  0.00  0.00    +0.000 C 
ATOM      4  O   LEU D   1       1.446 -33.229 -19.560  0.00  0.00    +0.000 OA
ATOM      5  CB  LEU D   1      -1.487 -33.619 -18.345  0.00  0.00    +0.000 C 
ATOM      6  CG  LEU D   1      -3.001 -33.845 -18.416  0.00  0.00    +0.000 C 
ATOM      7  CD2 LEU D   1      -3.683 -33.387 -17.138  0.00  0.00    +0.000 C 
ATOM      8  CD1 LEU D   1      -3.612 -33.154 -19.624  0.00  0.00    +0.000 C 
ATOM      9  N   SER D   2       1.439 -35.180 -18.415  0.00  0.00    +0.000 N 
ATOM     10  CA  SER D   2       2.841 -35.110 -18.035  0.00  0.00    +0.000 C 
ATOM     11  C   SER D   2       3.705 -35.999 -18.930  0.00  0.00    +0.000 C 
ATOM     12  O   SER D   2       4.928 -35.997 -18.803  0.00  0.00    +0.000 OA
ATOM     13  CB  SER D   2       3.034 -35.424 -16.570  0.00  0.00    +0.000 C 
ATOM     14  OG  SER D   2       2.561 -36.727 -16.260  0.00  0.00    +0.000 OA
ATOM     15  H   LEU D   1      -0.463 -36.300 -20.005  0.00  0.00    +0.000 HD
ATOM     16  H   LEU D   1      -2.005 -35.881 -19.535  0.00  0.00    +0.000 HD
ATOM     17  H   LEU D   1      -0.827 -36.142 -18.387  0.00  0.00    +0.000 HD
ATOM     18  H   SER D   2       0.910 -35.965 -18.145  0.00  0.00    +0.000 HD
ATOM     19  H   SER D   2       1.613 -36.782 -16.457  0.00  0.00    +0.000 HD
TER 
REMARK  Name = /data/user_data/xianyang/t3-aimnet-affinity-balanced/L3/O14638/pocket.pdb
REMARK                            x       y       z     vdW  Elec       q    Type
REMARK                         _______ _______ _______ _____ _____    ______ ____
ATOM      1  N   LYS E   1       1.689 -35.873 -25.308  0.00  0.00    +0.000 N 
ATOM      2  CA  LYS E   1       0.643 -34.893 -25.562  0.00  0.00    +0.000 C 
ATOM      3  C   LYS E   1       1.097 -33.946 -26.671  0.00  0.00    +0.000 C 
ATOM      4  O   LYS E   1       0.296 -33.180 -27.205  0.00  0.00    +0.000 OA
ATOM      5  CB  LYS E   1       0.244 -34.089 -24.319  0.00  0.00    +0.000 C 
ATOM      6  CG  LYS E   1       1.217 -32.987 -23.927  0.00  0.00    +0.000 C 
ATOM      7  CD  LYS E   1       0.539 -31.750 -23.351  0.00  0.00    +0.000 C 
ATOM      8  CE  LYS E   1       1.495 -30.602 -23.278  0.00  0.00    +0.000 C 
ATOM      9  NZ  LYS E   1       0.807 -29.341 -22.994  0.00  0.00    +0.000 N 
ATOM     10  H   LYS E   1       1.906 -36.370 -26.172  0.00  0.00    +0.000 HD
ATOM     11  H   LYS E   1       1.368 -36.538 -24.604  0.00  0.00    +0.000 HD
ATOM     12  H   LYS E   1       2.526 -35.397 -24.970  0.00  0.00    +0.000 HD
ATOM     13  H   LYS E   1       0.143 -29.140 -23.742  0.00  0.00    +0.000 HD
ATOM     14  H   LYS E   1       1.491 -28.587 -22.934  0.00  0.00    +0.000 HD
ATOM     15  H   LYS E   1       0.307 -29.418 -22.108  0.00  0.00    +0.000 HD
TER 
REMARK  Name = /data/user_data/xianyang/t3-aimnet-affinity-balanced/L3/O14638/pocket.pdb
REMARK                            x       y       z     vdW  Elec       q    Type
REMARK                         _______ _______ _______ _____ _____    ______ ____
ATOM      1  N   PHE F   1       0.040 -20.682 -23.606  0.00  0.00    +0.000 N 
ATOM      2  CA  PHE F   1      -0.257 -21.777 -22.692  0.00  0.00    +0.000 C 
ATOM      3  C   PHE F   1      -1.666 -22.323 -22.911  0.00  0.00    +0.000 C 
ATOM      4  O   PHE F   1      -2.267 -22.860 -21.983  0.00  0.00    +0.000 OA
ATOM      5  CB  PHE F   1      -0.093 -21.364 -21.224  0.00  0.00    +0.000 C 
ATOM      6  CG  PHE F   1       1.329 -21.242 -20.692  0.00  0.00    +0.000 A 
ATOM      7  CD1 PHE F   1       2.431 -21.308 -21.542  0.00  0.00    +0.000 A 
ATOM      8  CD2 PHE F   1       1.556 -21.038 -19.334  0.00  0.00    +0.000 A 
ATOM      9  CE1 PHE F   1       3.721 -21.189 -21.043  0.00  0.00    +0.000 A 
ATOM     10  CE2 PHE F   1       2.846 -20.918 -18.840  0.00  0.00    +0.000 A 
ATOM     11  CZ  PHE F   1       3.925 -20.991 -19.694  0.00  0.00    +0.000 A 
ATOM     12  N   TRP F   2      -2.189 -22.206 -24.135  0.00  0.00    +0.000 N 
ATOM     13  CA  TRP F   2      -3.468 -22.832 -24.425  0.00  0.00    +0.000 C 
ATOM     14  C   TRP F   2      -3.246 -24.310 -24.735  0.00  0.00    +0.000 C 
ATOM     15  O   TRP F   2      -2.341 -24.649 -25.495  0.00  0.00    +0.000 OA
ATOM     16  CB  TRP F   2      -4.191 -22.123 -25.578  0.00  0.00    +0.000 C 
ATOM     17  CG  TRP F   2      -5.637 -22.526 -25.707  0.00  0.00    +0.000 C 
ATOM     18  CD1 TRP F   2      -6.129 -23.644 -26.314  0.00  0.00    +0.000 C 
ATOM     19  CD2 TRP F   2      -6.784 -21.801 -25.212  0.00  0.00    +0.000 C 
ATOM     20  NE1 TRP F   2      -7.495 -23.670 -26.229  0.00  0.00    +0.000 NA
ATOM     21  CE2 TRP F   2      -7.927 -22.554 -25.562  0.00  0.00    +0.000 C 
ATOM     22  CE3 TRP F   2      -6.955 -20.599 -24.514  0.00  0.00    +0.000 C 
ATOM     23  CZ2 TRP F   2      -9.218 -22.141 -25.235  0.00  0.00    +0.000 C 
ATOM     24  CZ3 TRP F   2      -8.233 -20.191 -24.196  0.00  0.00    +0.000 C 
ATOM     25  CH2 TRP F   2      -9.347 -20.955 -24.549  0.00  0.00    +0.000 C 
ATOM     26  N   PRO F   3      -4.036 -25.235 -24.137  0.00  0.00    +0.000 N 
ATOM     27  CA  PRO F   3      -3.948 -26.652 -24.474  0.00  0.00    +0.000 C 
ATOM     28  C   PRO F   3      -3.905 -26.930 -25.976  0.00  0.00    +0.000 C 
ATOM     29  O   PRO F   3      -4.878 -26.687 -26.689  0.00  0.00    +0.000 OA
ATOM     30  CB  PRO F   3      -5.137 -27.273 -23.741  0.00  0.00    +0.000 C 
ATOM     31  CG  PRO F   3      -5.299 -26.344 -22.550  0.00  0.00    +0.000 C 
ATOM     32  CD  PRO F   3      -5.013 -24.967 -23.070  0.00  0.00    +0.000 C 
ATOM     33  N   GLY F   4      -2.747 -27.421 -26.435  0.00  0.00    +0.000 N 
ATOM     34  CA  GLY F   4      -2.546 -27.819 -27.818  0.00  0.00    +0.000 C 
ATOM     35  C   GLY F   4      -1.600 -26.880 -28.563  0.00  0.00    +0.000 C 
ATOM     36  O   GLY F   4      -1.150 -27.200 -29.662  0.00  0.00    +0.000 OA
ATOM     37  N   SER F   5      -1.303 -25.727 -27.952  0.00  0.00    +0.000 N 
ATOM     38  CA  SER F   5      -0.533 -24.675 -28.598  0.00  0.00    +0.000 C 
ATOM     39  C   SER F   5       0.944 -25.057 -28.678  0.00  0.00    +0.000 C 
ATOM     40  O   SER F   5       1.711 -24.423 -29.400  0.00  0.00    +0.000 OA
ATOM     41  CB  SER F   5      -0.707 -23.355 -27.893  0.00  0.00    +0.000 C 
ATOM     42  OG  SER F   5       0.118 -23.279 -26.737  0.00  0.00    +0.000 OA
ATOM     43  N   ASP F   6       1.334 -26.083 -27.915  0.00  0.00    +0.000 N 
ATOM     44  CA  ASP F   6       2.705 -26.566 -27.921  0.00  0.00    +0.000 C 
ATOM     45  C   ASP F   6       2.794 -27.809 -28.804  0.00  0.00    +0.000 C 
ATOM     46  O   ASP F   6       3.611 -28.697 -28.561  0.00  0.00    +0.000 OA
ATOM     47  CB  ASP F   6       3.245 -26.728 -26.507  0.00  0.00    +0.000 C 
ATOM     48  CG  ASP F   6       2.425 -27.595 -25.559  0.00  0.00    +0.000 C 
ATOM     49  OD2 ASP F   6       2.852 -27.745 -24.395  0.00  0.00    +0.000 OA
ATOM     50  OD1 ASP F   6       1.368 -28.110 -25.985  0.00  0.00    +0.000 OA
ATOM     51  H   PHE F   1      -0.081 -20.999 -24.568  0.00  0.00    +0.000 HD
ATOM     52  H   PHE F   1       1.003 -20.376 -23.468  0.00  0.00    +0.000 HD
ATOM     53  H   PHE F   1      -0.594 -19.904 -23.422  0.00  0.00    +0.000 HD
ATOM     54  H   TRP F   2      -1.713 -21.701 -24.833  0.00  0.00    +0.000 HD
ATOM     55  H   GLY F   4      -1.996 -27.517 -25.806  0.00  0.00    +0.000 HD
ATOM     56  H   SER F   5      -1.618 -25.585 -27.030  0.00  0.00    +0.000 HD
ATOM     57  H   SER F   5      -0.127 -23.984 -26.118  0.00  0.00    +0.000 HD
ATOM     58  H   ASP F   6       0.674 -26.524 -27.333  0.00  0.00    +0.000 HD
TER 
REMARK  Name = /data/user_data/xianyang/t3-aimnet-affinity-balanced/L3/O14638/pocket.pdb
REMARK                            x       y       z     vdW  Elec       q    Type
REMARK                         _______ _______ _______ _____ _____    ______ ____
ATOM      1  N   MET G   1       4.348 -20.722 -26.753  0.00  0.00    +0.000 N 
ATOM      2  CA  MET G   1       5.179 -20.799 -25.563  0.00  0.00    +0.000 C 
ATOM      3  C   MET G   1       5.179 -22.229 -25.027  0.00  0.00    +0.000 C 
ATOM      4  O   MET G   1       4.115 -22.799 -24.789  0.00  0.00    +0.000 OA
ATOM      5  CB  MET G   1       4.662 -19.859 -24.467  0.00  0.00    +0.000 C 
ATOM      6  CG  MET G   1       5.102 -18.414 -24.613  0.00  0.00    +0.000 C 
ATOM      7  SD  MET G   1       6.797 -18.108 -24.071  0.00  0.00    +0.000 S 
ATOM      8  CE  MET G   1       6.718 -18.432 -22.303  0.00  0.00    +0.000 C 
ATOM      9  N   PRO G   2       6.364 -22.861 -24.845  0.00  0.00    +0.000 N 
ATOM     10  CA  PRO G   2       6.462 -24.113 -24.100  0.00  0.00    +0.000 C 
ATOM     11  C   PRO G   2       5.992 -23.976 -22.654  0.00  0.00    +0.000 C 
ATOM     12  O   PRO G   2       6.360 -23.024 -21.967  0.00  0.00    +0.000 OA
ATOM     13  CB  PRO G   2       7.931 -24.514 -24.241  0.00  0.00    +0.000 C 
ATOM     14  CG  PRO G   2       8.415 -23.719 -25.443  0.00  0.00    +0.000 C 
ATOM     15  CD  PRO G   2       7.658 -22.430 -25.396  0.00  0.00    +0.000 C 
ATOM     16  N   TYR G   3       5.180 -24.946 -22.212  0.00  0.00    +0.000 N 
ATOM     17  CA  TYR G   3       4.412 -24.848 -20.981  0.00  0.00    +0.000 C 
ATOM     18  C   TYR G   3       5.339 -24.741 -19.775  0.00  0.00    +0.000 C 
ATOM     19  O   TYR G   3       6.328 -25.464 -19.671  0.00  0.00    +0.000 OA
ATOM     20  CB  TYR G   3       3.433 -26.015 -20.811  0.00  0.00    +0.000 C 
ATOM     21  CG  TYR G   3       2.536 -25.929 -19.582  0.00  0.00    +0.000 A 
ATOM     22  CD1 TYR G   3       1.485 -25.018 -19.525  0.00  0.00    +0.000 A 
ATOM     23  CD2 TYR G   3       2.726 -26.766 -18.487  0.00  0.00    +0.000 A 
ATOM     24  CE1 TYR G   3       0.657 -24.937 -18.417  0.00  0.00    +0.000 A 
ATOM     25  CE2 TYR G   3       1.902 -26.697 -17.373  0.00  0.00    +0.000 A 
ATOM     26  CZ  TYR G   3       0.866 -25.780 -17.339  0.00  0.00    +0.000 A 
ATOM     27  OH  TYR G   3       0.054 -25.700 -16.245  0.00  0.00    +0.000 OA
ATOM     28  H   MET G   1       4.713 -21.355 -27.464  0.00  0.00    +0.000 HD
ATOM     29  H   MET G   1       4.356 -19.767 -27.112  0.00  0.00    +0.000 HD
ATOM     30  H   MET G   1       3.392 -20.989 -26.518  0.00  0.00    +0.000 HD
ATOM     31  H   TYR G   3       5.099 -25.768 -22.748  0.00  0.00    +0.000 HD
ATOM     32  H   TYR G   3      -0.646 -25.078 -16.226  0.00  0.00    +0.000 HD
TER 
REMARK  Name = /data/user_data/xianyang/t3-aimnet-affinity-balanced/L3/O14638/pocket.pdb
REMARK                            x       y       z     vdW  Elec       q    Type
REMARK                         _______ _______ _______ _____ _____    ______ ____
ATOM      1  N   TYR H   1      -4.037 -18.253 -20.816  0.00  0.00    +0.000 N 
ATOM      2  CA  TYR H   1      -4.460 -19.322 -19.922  0.00  0.00    +0.000 C 
ATOM      3  C   TYR H   1      -3.882 -19.096 -18.527  0.00  0.00    +0.000 C 
ATOM      4  O   TYR H   1      -2.689 -18.838 -18.376  0.00  0.00    +0.000 OA
ATOM      5  CB  TYR H   1      -4.043 -20.687 -20.485  0.00  0.00    +0.000 C 
ATOM      6  CG  TYR H   1      -4.322 -21.891 -19.592  0.00  0.00    +0.000 A 
ATOM      7  CD1 TYR H   1      -5.512 -22.605 -19.698  0.00  0.00    +0.000 A 
ATOM      8  CD2 TYR H   1      -3.393 -22.321 -18.650  0.00  0.00    +0.000 A 
ATOM      9  CE1 TYR H   1      -5.770 -23.703 -18.891  0.00  0.00    +0.000 A 
ATOM     10  CE2 TYR H   1      -3.641 -23.415 -17.836  0.00  0.00    +0.000 A 
ATOM     11  CZ  TYR H   1      -4.832 -24.109 -17.957  0.00  0.00    +0.000 A 
ATOM     12  OH  TYR H   1      -5.080 -25.191 -17.160  0.00  0.00    +0.000 OA
ATOM     13  H   TYR H   1      -4.427 -18.412 -21.745  0.00  0.00    +0.000 HD
ATOM     14  H   TYR H   1      -3.019 -18.240 -20.873  0.00  0.00    +0.000 HD
ATOM     15  H   TYR H   1      -4.369 -17.358 -20.456  0.00  0.00    +0.000 HD
ATOM     16  H   TYR H   1      -5.887 -25.659 -17.244  0.00  0.00    +0.000 HD
TER 
REMARK  Name = /data/user_data/xianyang/t3-aimnet-affinity-balanced/L3/O14638/pocket.pdb
REMARK                            x       y       z     vdW  Elec       q    Type
REMARK                         _______ _______ _______ _____ _____    ______ ____
ATOM      1  N   GLU I   1      -4.023 -21.019 -14.533  0.00  0.00    +0.000 N 
ATOM      2  CA  GLU I   1      -4.324 -22.292 -13.892  0.00  0.00    +0.000 C 
ATOM      3  C   GLU I   1      -5.307 -22.091 -12.741  0.00  0.00    +0.000 C 
ATOM      4  O   GLU I   1      -5.843 -23.061 -12.209  0.00  0.00    +0.000 OA
ATOM      5  CB  GLU I   1      -3.100 -23.037 -13.357  0.00  0.00    +0.000 C 
ATOM      6  CG  GLU I   1      -2.042 -23.354 -14.410  0.00  0.00    +0.000 C 
ATOM      7  CD  GLU I   1      -1.126 -22.184 -14.714  0.00  0.00    +0.000 C 
ATOM      8  OE2 GLU I   1      -0.603 -21.570 -13.757  0.00  0.00    +0.000 OA
ATOM      9  OE1 GLU I   1      -0.925 -21.900 -15.912  0.00  0.00    +0.000 OA
ATOM     10  H   GLU I   1      -3.366 -21.171 -15.298  0.00  0.00    +0.000 HD
ATOM     11  H   GLU I   1      -3.609 -20.384 -13.850  0.00  0.00    +0.000 HD
ATOM     12  H   GLU I   1      -4.883 -20.611 -14.899  0.00  0.00    +0.000 HD
TER 
REMARK  Name = /data/user_data/xianyang/t3-aimnet-affinity-balanced/L3/O14638/pocket.pdb
REMARK                            x       y       z     vdW  Elec       q    Type
REMARK                         _______ _______ _______ _____ _____    ______ ____
ATOM      1  N   ASP J   1      -8.561 -23.041 -10.799  0.00  0.00    +0.000 N 
ATOM      2  CA  ASP J   1      -8.667 -24.492 -10.816  0.00  0.00    +0.000 C 
ATOM      3  C   ASP J   1      -7.851 -25.089  -9.670  0.00  0.00    +0.000 C 
ATOM      4  O   ASP J   1      -8.401 -25.811  -8.839  0.00  0.00    +0.000 OA
ATOM      5  CB  ASP J   1      -8.344 -25.086 -12.179  0.00  0.00    +0.000 C 
ATOM      6  CG  ASP J   1      -8.778 -26.532 -12.368  0.00  0.00    +0.000 C 
ATOM      7  OD1 ASP J   1      -7.890 -27.399 -12.494  0.00  0.00    +0.000 OA
ATOM      8  OD2 ASP J   1     -10.000 -26.781 -12.396  0.00  0.00    +0.000 OA
ATOM      9  H   ASP J   1      -9.108 -22.651 -11.566  0.00  0.00    +0.000 HD
ATOM     10  H   ASP J   1      -7.583 -22.770 -10.906  0.00  0.00    +0.000 HD
ATOM     11  H   ASP J   1      -8.917 -22.684  -9.912  0.00  0.00    +0.000 HD
TER 
REMARK  Name = /data/user_data/xianyang/t3-aimnet-affinity-balanced/L3/O14638/pocket.pdb
REMARK                            x       y       z     vdW  Elec       q    Type
REMARK                         _______ _______ _______ _____ _____    ______ ____
ATOM      1  N   HIS K   1      -9.403 -27.357  -6.533  0.00  0.00    +0.000 N 
ATOM      2  CA  HIS K   1      -9.107 -28.727  -6.141  0.00  0.00    +0.000 C 
ATOM      3  C   HIS K   1      -8.557 -28.751  -4.717  0.00  0.00    +0.000 C 
ATOM      4  O   HIS K   1      -8.965 -29.582  -3.909  0.00  0.00    +0.000 OA
ATOM      5  CB  HIS K   1      -8.079 -29.368  -7.081  0.00  0.00    +0.000 C 
ATOM      6  CG  HIS K   1      -8.586 -29.770  -8.426  0.00  0.00    +0.000 A 
ATOM      7  ND1 HIS K   1      -9.066 -31.033  -8.703  0.00  0.00    +0.000 N 
ATOM      8  CD2 HIS K   1      -8.654 -29.089  -9.575  0.00  0.00    +0.000 A 
ATOM      9  CE1 HIS K   1      -9.425 -31.095  -9.977  0.00  0.00    +0.000 A 
ATOM     10  NE2 HIS K   1      -9.181 -29.925 -10.525  0.00  0.00    +0.000 NA
ATOM     11  H   HIS K   1      -9.770 -27.347  -7.485  0.00  0.00    +0.000 HD
ATOM     12  H   HIS K   1      -8.550 -26.800  -6.492  0.00  0.00    +0.000 HD
ATOM     13  H   HIS K   1     -10.097 -26.964  -5.897  0.00  0.00    +0.000 HD
ATOM     14  H   HIS K   1      -9.132 -31.772  -8.056  0.00  0.00    +0.000 HD
TER 
REMARK  Name = /data/user_data/xianyang/t3-aimnet-affinity-balanced/L3/O14638/pocket.pdb
REMARK                            x       y       z     vdW  Elec       q    Type
REMARK                         _______ _______ _______ _____ _____    ______ ____
ATOM      1  N   ASP L   1     -13.250 -23.365 -18.962  0.00  0.00    +0.000 N 
ATOM      2  CA  ASP L   1     -13.321 -24.654 -19.630  0.00  0.00    +0.000 C 
ATOM      3  C   ASP L   1     -14.401 -25.520 -18.990  0.00  0.00    +0.000 C 
ATOM      4  O   ASP L   1     -15.059 -26.302 -19.674  0.00  0.00    +0.000 OA
ATOM      5  CB  ASP L   1     -11.967 -25.344 -19.588  0.00  0.00    +0.000 C 
ATOM      6  CG  ASP L   1     -11.427 -25.653 -18.197  0.00  0.00    +0.000 C 
ATOM      7  OD2 ASP L   1     -11.458 -24.749 -17.333  0.00  0.00    +0.000 OA
ATOM      8  OD1 ASP L   1     -10.962 -26.791 -17.995  0.00  0.00    +0.000 OA
ATOM      9  N   HIS L   2     -14.554 -25.372 -17.667  0.00  0.00    +0.000 N 
ATOM     10  CA  HIS L   2     -15.467 -26.164 -16.859  0.00  0.00    +0.000 C 
ATOM     11  C   HIS L   2     -15.627 -25.504 -15.492  0.00  0.00    +0.000 C 
ATOM     12  O   HIS L   2     -14.956 -24.518 -15.192  0.00  0.00    +0.000 OA
ATOM     13  CB  HIS L   2     -14.930 -27.587 -16.666  0.00  0.00    +0.000 C 
ATOM     14  CG  HIS L   2     -13.629 -27.648 -15.939  0.00  0.00    +0.000 A 
ATOM     15  ND1 HIS L   2     -13.505 -27.383 -14.592  0.00  0.00    +0.000 N 
ATOM     16  CD2 HIS L   2     -12.398 -27.925 -16.375  0.00  0.00    +0.000 A 
ATOM     17  CE1 HIS L   2     -12.233 -27.498 -14.240  0.00  0.00    +0.000 A 
ATOM     18  NE2 HIS L   2     -11.542 -27.827 -15.309  0.00  0.00    +0.000 NA
ATOM     19  H   ASP L   1     -12.525 -22.795 -19.398  0.00  0.00    +0.000 HD
ATOM     20  H   ASP L   1     -13.026 -23.505 -17.977  0.00  0.00    +0.000 HD
ATOM     21  H   ASP L   1     -14.149 -22.891 -19.042  0.00  0.00    +0.000 HD
ATOM     22  H   HIS L   2     -14.015 -24.684 -17.214  0.00  0.00    +0.000 HD
ATOM     23  H   HIS L   2     -14.245 -27.146 -13.987  0.00  0.00    +0.000 HD
TER 
REMARK  Name = /data/user_data/xianyang/t3-aimnet-affinity-balanced/L3/O14638/pocket.pdb
REMARK                            x       y       z     vdW  Elec       q    Type
REMARK                         _______ _______ _______ _____ _____    ______ ____
ATOM      1  N   ASN M   1     -13.352 -30.884  -7.384  0.00  0.00    +0.000 N 
ATOM      2  CA  ASN M   1     -13.190 -31.746  -8.542  0.00  0.00    +0.000 C 
ATOM      3  C   ASN M   1     -14.266 -31.406  -9.568  0.00  0.00    +0.000 C 
ATOM      4  O   ASN M   1     -15.199 -30.660  -9.274  0.00  0.00    +0.000 OA
ATOM      5  CB  ASN M   1     -13.256 -33.220  -8.152  0.00  0.00    +0.000 C 
ATOM      6  CG  ASN M   1     -12.318 -34.089  -8.955  0.00  0.00    +0.000 C 
ATOM      7  OD1 ASN M   1     -11.478 -33.582  -9.707  0.00  0.00    +0.000 OA
ATOM      8  ND2 ASN M   1     -12.423 -35.399  -8.788  0.00  0.00    +0.000 N 
ATOM      9  N   HIS M   2     -14.129 -31.984 -10.765  0.00  0.00    +0.000 N 
ATOM     10  CA  HIS M   2     -14.986 -31.663 -11.893  0.00  0.00    +0.000 C 
ATOM     11  C   HIS M   2     -14.976 -32.830 -12.875  0.00  0.00    +0.000 C 
ATOM     12  O   HIS M   2     -14.346 -33.853 -12.621  0.00  0.00    +0.000 OA
ATOM     13  CB  HIS M   2     -14.504 -30.368 -12.556  0.00  0.00    +0.000 C 
ATOM     14  CG  HIS M   2     -13.052 -30.402 -12.880  0.00  0.00    +0.000 C 
ATOM     15  ND1 HIS M   2     -12.573 -30.782 -14.115  0.00  0.00    +0.000 NA
ATOM     16  CD2 HIS M   2     -11.979 -30.119 -12.131  0.00  0.00    +0.000 C 
ATOM     17  CE1 HIS M   2     -11.251 -30.723 -14.101  0.00  0.00    +0.000 C 
ATOM     18  NE2 HIS M   2     -10.870 -30.321 -12.908  0.00  0.00    +0.000 NA
ATOM     19  H   ASN M   1     -13.303 -29.908  -7.677  0.00  0.00    +0.000 HD
ATOM     20  H   ASN M   1     -12.609 -31.075  -6.712  0.00  0.00    +0.000 HD
ATOM     21  H   ASN M   1     -14.257 -31.064  -6.950  0.00  0.00    +0.000 HD
ATOM     22  H   ASN M   1     -11.834 -36.008  -9.289  0.00  0.00    +0.000 HD
ATOM     23  H   ASN M   1     -13.090 -35.764  -8.163  0.00  0.00    +0.000 HD
ATOM     24  H   HIS M   2     -13.419 -32.654 -10.887  0.00  0.00    +0.000 HD
TER 
