REMARK  Name = /home/xianyang/aimnet2_score_pipelines/work/L1234-fixed-receptor-eint-20260921/L2/P36897/prepared.pdb
REMARK                            x       y       z     vdW  Elec       q    Type
REMARK                         _______ _______ _______ _____ _____    ______ ____
ATOM      1  CH3 ACE A   1      15.344  22.134   4.911  0.00  0.00    +0.000 C 
ATOM      2  C   ACE A   1      14.578  20.862   5.306  0.00  0.00    +0.000 C 
ATOM      3  O   ACE A   1      13.413  20.930   5.667  0.00  0.00    +0.000 OA
ATOM      4  N   SER A   2      15.256  19.715   5.221  0.00  0.00    +0.000 N 
ATOM      5  H   SER A   2      16.204  19.746   4.881  0.00  0.00    +0.000 HD
ATOM      6  CA  SER A   2      14.719  18.391   5.567  0.00  0.00    +0.000 C 
ATOM      7  C   SER A   2      14.764  18.162   7.060  0.00  0.00    +0.000 C 
ATOM      8  O   SER A   2      15.825  18.037   7.660  0.00  0.00    +0.000 OA
ATOM      9  CB  SER A   2      15.550  17.315   4.884  0.00  0.00    +0.000 C 
ATOM     10  OG  SER A   2      15.460  17.431   3.484  0.00  0.00    +0.000 OA
ATOM     11  HG  SER A   2      14.573  17.760   3.212  0.00  0.00    +0.000 HD
ATOM     12  N   ILE A   3      13.590  18.103   7.652  0.00  0.00    +0.000 N 
ATOM     13  H   ILE A   3      12.756  18.227   7.094  0.00  0.00    +0.000 HD
ATOM     14  CA  ILE A   3      13.474  17.910   9.084  0.00  0.00    +0.000 C 
ATOM     15  C   ILE A   3      12.640  16.662   9.351  0.00  0.00    +0.000 C 
ATOM     16  O   ILE A   3      12.088  16.500  10.450  0.00  0.00    +0.000 OA
ATOM     17  CB  ILE A   3      12.757  19.111   9.736  0.00  0.00    +0.000 C 
ATOM     18  CG1 ILE A   3      11.650  19.603   8.811  0.00  0.00    +0.000 C 
ATOM     19  CG2 ILE A   3      13.761  20.245  10.017  0.00  0.00    +0.000 C 
ATOM     20  CD1 ILE A   3      10.443  20.133   9.546  0.00  0.00    +0.000 C 
ATOM     21  N   GLY A   4      12.548  15.806   8.327  0.00  0.00    +0.000 N 
ATOM     22  H   GLY A   4      13.096  15.986   7.499  0.00  0.00    +0.000 HD
ATOM     23  CA  GLY A   4      11.732  14.601   8.380  0.00  0.00    +0.000 C 
ATOM     24  C   GLY A   4      12.457  13.270   8.370  0.00  0.00    +0.000 C 
ATOM     25  O   GLY A   4      13.691  13.193   8.265  0.00  0.00    +0.000 OA
ATOM     26  N   LYS A   5      11.667  12.204   8.441  0.00  0.00    +0.000 N 
ATOM     27  H   LYS A   5      10.692  12.384   8.596  0.00  0.00    +0.000 HD
ATOM     28  CA  LYS A   5      12.173  10.830   8.551  0.00  0.00    +0.000 C 
ATOM     29  C   LYS A   5      12.508  10.116   7.225  0.00  0.00    +0.000 C 
ATOM     30  O   LYS A   5      13.593  10.288   6.640  0.00  0.00    +0.000 OA
ATOM     31  CB  LYS A   5      11.134   9.998   9.319  0.00  0.00    +0.000 C 
ATOM     32  CG  LYS A   5       9.729  10.487   9.067  0.00  0.00    +0.000 C 
ATOM     33  CD  LYS A   5       8.663   9.507   9.494  0.00  0.00    +0.000 C 
ATOM     34  CE  LYS A   5       7.372   9.817   8.755  0.00  0.00    +0.000 C 
ATOM     35  NZ  LYS A   5       7.721   9.894   7.311  0.00  0.00    +0.000 N 
ATOM     36  HZ1 LYS A   5       6.884   9.978   6.745  0.00  0.00    +0.000 HD
ATOM     37  HZ2 LYS A   5       8.203   9.059   7.006  0.00  0.00    +0.000 HD
ATOM     38  HZ3 LYS A   5       8.306  10.697   7.109  0.00  0.00    +0.000 HD
ATOM     39  N   GLY A   6      11.594   9.276   6.745  0.00  0.00    +0.000 N 
ATOM     40  H   GLY A   6      10.737   9.152   7.237  0.00  0.00    +0.000 HD
ATOM     41  CA  GLY A   6      11.871   8.564   5.499  0.00  0.00    +0.000 C 
ATOM     42  C   GLY A   6      11.064   7.273   5.245  0.00  0.00    +0.000 C 
ATOM     43  O   GLY A   6      11.181   6.694   4.172  0.00  0.00    +0.000 OA
ATOM     44  N   ARG A   7      10.243   6.815   6.197  0.00  0.00    +0.000 N 
ATOM     45  H   ARG A   7      10.356   7.204   7.115  0.00  0.00    +0.000 HD
ATOM     46  CA  ARG A   7       9.465   5.566   6.055  0.00  0.00    +0.000 C 
ATOM     47  C   ARG A   7       8.266   5.695   5.114  0.00  0.00    +0.000 C 
ATOM     48  O   ARG A   7       8.101   4.904   4.204  0.00  0.00    +0.000 OA
ATOM     49  CB  ARG A   7       8.971   5.100   7.437  0.00  0.00    +0.000 C 
ATOM     50  CG  ARG A   7      10.075   4.767   8.470  0.00  0.00    +0.000 C 
ATOM     51  CD  ARG A   7       9.742   3.487   9.253  0.00  0.00    +0.000 C 
ATOM     52  NE  ARG A   7       8.458   3.562   9.945  0.00  0.00    +0.000 N 
ATOM     53  HE  ARG A   7       7.995   4.453  10.003  0.00  0.00    +0.000 HD
ATOM     54  CZ  ARG A   7       7.835   2.503  10.457  0.00  0.00    +0.000 C 
ATOM     55  NH1 ARG A   7       8.381   1.297  10.348  0.00  0.00    +0.000 N 
ATOM     56 HH11 ARG A   7       7.918   0.496  10.737  0.00  0.00    +0.000 HD
ATOM     57 HH12 ARG A   7       9.266   1.205   9.884  0.00  0.00    +0.000 HD
ATOM     58  NH2 ARG A   7       6.671   2.640  11.080  0.00  0.00    +0.000 N 
ATOM     59 HH21 ARG A   7       6.256   3.541  11.224  0.00  0.00    +0.000 HD
ATOM     60 HH22 ARG A   7       6.211   1.827  11.451  0.00  0.00    +0.000 HD
ATOM     61  N   PHE A   8       7.442   6.713   5.313  0.00  0.00    +0.000 N 
ATOM     62  H   PHE A   8       7.501   7.197   6.182  0.00  0.00    +0.000 HD
ATOM     63  CA  PHE A   8       6.260   6.885   4.470  0.00  0.00    +0.000 C 
ATOM     64  C   PHE A   8       6.160   8.278   3.821  0.00  0.00    +0.000 C 
ATOM     65  O   PHE A   8       5.110   8.906   3.857  0.00  0.00    +0.000 OA
ATOM     66  CB  PHE A   8       5.023   6.618   5.329  0.00  0.00    +0.000 C 
ATOM     67  CG  PHE A   8       5.337   6.131   6.716  0.00  0.00    +0.000 A 
ATOM     68  CD1 PHE A   8       5.341   7.006   7.796  0.00  0.00    +0.000 A 
ATOM     69  CD2 PHE A   8       5.628   4.795   6.941  0.00  0.00    +0.000 A 
ATOM     70  CE1 PHE A   8       5.607   6.544   9.087  0.00  0.00    +0.000 A 
ATOM     71  CE2 PHE A   8       5.898   4.324   8.225  0.00  0.00    +0.000 A 
ATOM     72  CZ  PHE A   8       5.895   5.201   9.300  0.00  0.00    +0.000 A 
ATOM     73  N   GLY A   9       7.247   8.767   3.233  0.00  0.00    +0.000 N 
ATOM     74  H   GLY A   9       8.092   8.215   3.158  0.00  0.00    +0.000 HD
ATOM     75  CA  GLY A   9       7.221  10.099   2.639  0.00  0.00    +0.000 C 
ATOM     76  C   GLY A   9       8.367  10.914   3.199  0.00  0.00    +0.000 C 
ATOM     77  O   GLY A   9       9.233  10.327   3.849  0.00  0.00    +0.000 OA
ATOM     78  N   GLU A  10       8.409  12.225   2.961  0.00  0.00    +0.000 N 
ATOM     79  H   GLU A  10       7.803  12.643   2.257  0.00  0.00    +0.000 HD
ATOM     80  CA  GLU A  10       9.494  13.032   3.515  0.00  0.00    +0.000 C 
ATOM     81  C   GLU A  10       9.036  14.413   3.986  0.00  0.00    +0.000 C 
ATOM     82  O   GLU A  10       8.213  15.053   3.339  0.00  0.00    +0.000 OA
ATOM     83  CB  GLU A  10      10.615  13.160   2.503  0.00  0.00    +0.000 C 
ATOM     84  CG  GLU A  10      10.423  14.260   1.493  0.00  0.00    +0.000 C 
ATOM     85  CD  GLU A  10      11.531  14.293   0.480  0.00  0.00    +0.000 C 
ATOM     86  OE1 GLU A  10      12.624  13.774   0.788  0.00  0.00    +0.000 OA
ATOM     87  OE2 GLU A  10      11.315  14.847  -0.612  0.00  0.00    +0.000 OA
ATOM     88  N   VAL A  11       9.573  14.866   5.116  0.00  0.00    +0.000 N 
ATOM     89  H   VAL A  11      10.417  14.435   5.459  0.00  0.00    +0.000 HD
ATOM     90  CA  VAL A  11       9.163  16.140   5.679  0.00  0.00    +0.000 C 
ATOM     91  C   VAL A  11      10.158  17.269   5.435  0.00  0.00    +0.000 C 
ATOM     92  O   VAL A  11      11.374  17.068   5.387  0.00  0.00    +0.000 OA
ATOM     93  CB  VAL A  11       8.884  16.002   7.202  0.00  0.00    +0.000 C 
ATOM     94  CG1 VAL A  11       8.257  17.279   7.738  0.00  0.00    +0.000 C 
ATOM     95  CG2 VAL A  11       7.955  14.824   7.463  0.00  0.00    +0.000 C 
ATOM     96  N   TRP A  12       9.617  18.468   5.262  0.00  0.00    +0.000 N 
ATOM     97  H   TRP A  12       8.612  18.564   5.245  0.00  0.00    +0.000 HD
ATOM     98  CA  TRP A  12      10.423  19.646   5.002  0.00  0.00    +0.000 C 
ATOM     99  C   TRP A  12       9.928  20.874   5.759  0.00  0.00    +0.000 C 
ATOM    100  O   TRP A  12       8.725  21.038   6.012  0.00  0.00    +0.000 OA
ATOM    101  CB  TRP A  12      10.438  19.978   3.497  0.00  0.00    +0.000 C 
ATOM    102  CG  TRP A  12      11.228  19.023   2.649  0.00  0.00    +0.000 A 
ATOM    103  CD1 TRP A  12      10.839  17.767   2.219  0.00  0.00    +0.000 A 
ATOM    104  CD2 TRP A  12      12.534  19.247   2.109  0.00  0.00    +0.000 A 
ATOM    105  NE1 TRP A  12      11.820  17.214   1.448  0.00  0.00    +0.000 N 
ATOM    106  HE1 TRP A  12      11.732  16.357   0.901  0.00  0.00    +0.000 HD
ATOM    107  CE2 TRP A  12      12.865  18.088   1.364  0.00  0.00    +0.000 A 
ATOM    108  CE3 TRP A  12      13.452  20.309   2.181  0.00  0.00    +0.000 A 
ATOM    109  CZ2 TRP A  12      14.099  17.976   0.698  0.00  0.00    +0.000 A 
ATOM    110  CZ3 TRP A  12      14.668  20.187   1.520  0.00  0.00    +0.000 A 
ATOM    111  CH2 TRP A  12      14.980  19.036   0.792  0.00  0.00    +0.000 A 
ATOM    112  N   NME A  13      10.870  21.723   6.146  0.00  0.00    +0.000 N 
ATOM    113  H   NME A  13      11.837  21.523   5.933  0.00  0.00    +0.000 HD
ATOM    114  C   NME A  13      10.534  22.973   6.814  0.00  0.00    +0.000 C 
TER 
REMARK  Name = /home/xianyang/aimnet2_score_pipelines/work/L1234-fixed-receptor-eint-20260921/L2/P36897/prepared.pdb
REMARK                            x       y       z     vdW  Elec       q    Type
REMARK                         _______ _______ _______ _____ _____    ______ ____
ATOM      1  CH3 ACE B   1       7.155  28.656   8.912  0.00  0.00    +0.000 C 
ATOM      2  C   ACE B   1       6.053  27.612   8.841  0.00  0.00    +0.000 C 
ATOM      3  O   ACE B   1       5.033  27.724   9.526  0.00  0.00    +0.000 OA
ATOM      4  N   VAL B   2       6.264  26.591   8.020  0.00  0.00    +0.000 N 
ATOM      5  H   VAL B   2       7.141  26.497   7.529  0.00  0.00    +0.000 HD
ATOM      6  CA  VAL B   2       5.281  25.544   7.873  0.00  0.00    +0.000 C 
ATOM      7  C   VAL B   2       6.008  24.228   7.601  0.00  0.00    +0.000 C 
ATOM      8  O   VAL B   2       7.150  24.240   7.159  0.00  0.00    +0.000 OA
ATOM      9  CB  VAL B   2       4.306  25.897   6.722  0.00  0.00    +0.000 C 
ATOM     10  CG1 VAL B   2       4.958  25.638   5.362  0.00  0.00    +0.000 C 
ATOM     11  CG2 VAL B   2       3.022  25.132   6.878  0.00  0.00    +0.000 C 
ATOM     12  N   ALA B   3       5.368  23.103   7.917  0.00  0.00    +0.000 N 
ATOM     13  H   ALA B   3       4.408  23.141   8.250  0.00  0.00    +0.000 HD
ATOM     14  CA  ALA B   3       5.970  21.795   7.664  0.00  0.00    +0.000 C 
ATOM     15  C   ALA B   3       5.270  21.176   6.485  0.00  0.00    +0.000 C 
ATOM     16  O   ALA B   3       4.046  21.283   6.359  0.00  0.00    +0.000 OA
ATOM     17  CB  ALA B   3       5.839  20.891   8.869  0.00  0.00    +0.000 C 
ATOM     18  N   VAL B   4       6.044  20.517   5.628  0.00  0.00    +0.000 N 
ATOM     19  H   VAL B   4       7.050  20.521   5.760  0.00  0.00    +0.000 HD
ATOM     20  CA  VAL B   4       5.473  19.897   4.441  0.00  0.00    +0.000 C 
ATOM     21  C   VAL B   4       5.967  18.452   4.305  0.00  0.00    +0.000 C 
ATOM     22  O   VAL B   4       7.156  18.188   4.434  0.00  0.00    +0.000 OA
ATOM     23  CB  VAL B   4       5.865  20.655   3.160  0.00  0.00    +0.000 C 
ATOM     24  CG1 VAL B   4       5.172  20.010   1.967  0.00  0.00    +0.000 C 
ATOM     25  CG2 VAL B   4       5.477  22.116   3.313  0.00  0.00    +0.000 C 
ATOM     26  N   LYS B   5       5.027  17.530   4.105  0.00  0.00    +0.000 N 
ATOM     27  H   LYS B   5       4.065  17.851   4.061  0.00  0.00    +0.000 HD
ATOM     28  CA  LYS B   5       5.286  16.108   3.881  0.00  0.00    +0.000 C 
ATOM     29  C   LYS B   5       4.992  15.823   2.393  0.00  0.00    +0.000 C 
ATOM     30  O   LYS B   5       3.828  15.789   1.938  0.00  0.00    +0.000 OA
ATOM     31  CB  LYS B   5       4.383  15.253   4.776  0.00  0.00    +0.000 C 
ATOM     32  CG  LYS B   5       4.802  13.781   4.878  0.00  0.00    +0.000 C 
ATOM     33  CD  LYS B   5       4.057  13.071   6.014  0.00  0.00    +0.000 C 
ATOM     34  CE  LYS B   5       4.452  11.620   6.123  0.00  0.00    +0.000 C 
ATOM     35  NZ  LYS B   5       3.890  10.947   7.312  0.00  0.00    +0.000 N 
ATOM     36  HZ1 LYS B   5       2.867  11.070   7.263  0.00  0.00    +0.000 HD
ATOM     37  HZ2 LYS B   5       3.965   9.939   7.311  0.00  0.00    +0.000 HD
ATOM     38  HZ3 LYS B   5       4.139  11.355   8.201  0.00  0.00    +0.000 HD
ATOM     39  N   ILE B   6       6.071  15.587   1.657  0.00  0.00    +0.000 N 
ATOM     40  H   ILE B   6       6.980  15.568   2.108  0.00  0.00    +0.000 HD
ATOM     41  CA  ILE B   6       5.994  15.341   0.237  0.00  0.00    +0.000 C 
ATOM     42  C   ILE B   6       6.018  13.858  -0.098  0.00  0.00    +0.000 C 
ATOM     43  O   ILE B   6       6.922  13.123   0.303  0.00  0.00    +0.000 OA
ATOM     44  CB  ILE B   6       7.152  16.061  -0.493  0.00  0.00    +0.000 C 
ATOM     45  CG1 ILE B   6       7.044  17.576  -0.257  0.00  0.00    +0.000 C 
ATOM     46  CG2 ILE B   6       7.124  15.760  -2.010  0.00  0.00    +0.000 C 
ATOM     47  CD1 ILE B   6       8.337  18.305  -0.604  0.00  0.00    +0.000 C 
ATOM     48  N   NME B   7       4.977  13.418  -0.793  0.00  0.00    +0.000 N 
ATOM     49  H   NME B   7       4.230  14.064  -1.019  0.00  0.00    +0.000 HD
ATOM     50  C   NME B   7       4.885  12.031  -1.222  0.00  0.00    +0.000 C 
TER 
REMARK  Name = /home/xianyang/aimnet2_score_pipelines/work/L1234-fixed-receptor-eint-20260921/L2/P36897/prepared.pdb
REMARK                            x       y       z     vdW  Elec       q    Type
REMARK                         _______ _______ _______ _____ _____    ______ ____
ATOM      1  CH3 ACE C   1      -4.790  10.496   0.085  0.00  0.00    +0.000 C 
ATOM      2  C   ACE C   1      -5.425  10.150   1.423  0.00  0.00    +0.000 C 
ATOM      3  O   ACE C   1      -6.196  10.936   2.005  0.00  0.00    +0.000 OA
ATOM      4  N   ARG C   2      -5.103   8.946   1.887  0.00  0.00    +0.000 N 
ATOM      5  H   ARG C   2      -4.527   8.351   1.311  0.00  0.00    +0.000 HD
ATOM      6  CA  ARG C   2      -5.618   8.435   3.137  0.00  0.00    +0.000 C 
ATOM      7  C   ARG C   2      -5.266   9.336   4.321  0.00  0.00    +0.000 C 
ATOM      8  O   ARG C   2      -6.109   9.573   5.189  0.00  0.00    +0.000 OA
ATOM      9  CB  ARG C   2      -5.095   7.009   3.352  0.00  0.00    +0.000 C 
ATOM     10  CG  ARG C   2      -5.576   6.327   4.617  0.00  0.00    +0.000 C 
ATOM     11  CD  ARG C   2      -7.090   6.360   4.734  0.00  0.00    +0.000 C 
ATOM     12  NE  ARG C   2      -7.545   5.688   5.948  0.00  0.00    +0.000 N 
ATOM     13  HE  ARG C   2      -6.854   5.249   6.528  0.00  0.00    +0.000 HD
ATOM     14  CZ  ARG C   2      -8.812   5.653   6.353  0.00  0.00    +0.000 C 
ATOM     15  NH1 ARG C   2      -9.748   6.259   5.634  0.00  0.00    +0.000 N 
ATOM     16 HH11 ARG C   2     -10.712   6.255   5.890  0.00  0.00    +0.000 HD
ATOM     17 HH12 ARG C   2      -9.524   6.746   4.752  0.00  0.00    +0.000 HD
ATOM     18  NH2 ARG C   2      -9.140   5.019   7.479  0.00  0.00    +0.000 N 
ATOM     19 HH21 ARG C   2      -8.432   4.553   8.014  0.00  0.00    +0.000 HD
ATOM     20 HH22 ARG C   2     -10.095   5.057   7.789  0.00  0.00    +0.000 HD
ATOM     21  N   GLU C   3      -4.043   9.853   4.355  0.00  0.00    +0.000 N 
ATOM     22  H   GLU C   3      -3.369   9.595   3.654  0.00  0.00    +0.000 HD
ATOM     23  CA  GLU C   3      -3.645  10.707   5.470  0.00  0.00    +0.000 C 
ATOM     24  C   GLU C   3      -4.391  12.031   5.369  0.00  0.00    +0.000 C 
ATOM     25  O   GLU C   3      -4.786  12.606   6.385  0.00  0.00    +0.000 OA
ATOM     26  CB  GLU C   3      -2.123  10.932   5.475  0.00  0.00    +0.000 C 
ATOM     27  CG  GLU C   3      -1.571  11.212   6.861  0.00  0.00    +0.000 C 
ATOM     28  CD  GLU C   3      -0.055  11.348   6.910  0.00  0.00    +0.000 C 
ATOM     29  OE1 GLU C   3       0.651  10.708   6.098  0.00  0.00    +0.000 OA
ATOM     30  OE2 GLU C   3       0.433  12.084   7.791  0.00  0.00    +0.000 OA
ATOM     31  N   ALA C   4      -4.588  12.498   4.136  0.00  0.00    +0.000 N 
ATOM     32  H   ALA C   4      -4.283  11.947   3.352  0.00  0.00    +0.000 HD
ATOM     33  CA  ALA C   4      -5.310  13.738   3.875  0.00  0.00    +0.000 C 
ATOM     34  C   ALA C   4      -6.760  13.538   4.269  0.00  0.00    +0.000 C 
ATOM     35  O   ALA C   4      -7.382  14.435   4.818  0.00  0.00    +0.000 OA
ATOM     36  CB  ALA C   4      -5.227  14.109   2.392  0.00  0.00    +0.000 C 
ATOM     37  N   GLU C   5      -7.278  12.343   3.977  0.00  0.00    +0.000 N 
ATOM     38  H   GLU C   5      -6.710  11.685   3.465  0.00  0.00    +0.000 HD
ATOM     39  CA  GLU C   5      -8.664  11.950   4.274  0.00  0.00    +0.000 C 
ATOM     40  C   GLU C   5      -8.969  11.975   5.769  0.00  0.00    +0.000 C 
ATOM     41  O   GLU C   5     -10.042  12.418   6.197  0.00  0.00    +0.000 OA
ATOM     42  CB  GLU C   5      -8.923  10.541   3.721  0.00  0.00    +0.000 C 
ATOM     43  CG  GLU C   5     -10.335   9.989   3.935  0.00  0.00    +0.000 C 
ATOM     44  CD  GLU C   5     -10.570   8.688   3.174  0.00  0.00    +0.000 C 
ATOM     45  OE1 GLU C   5      -9.731   7.778   3.281  0.00  0.00    +0.000 OA
ATOM     46  OE2 GLU C   5     -11.593   8.569   2.469  0.00  0.00    +0.000 OA
ATOM     47  N   ILE C   6      -8.015  11.491   6.557  0.00  0.00    +0.000 N 
ATOM     48  H   ILE C   6      -7.188  11.094   6.125  0.00  0.00    +0.000 HD
ATOM     49  CA  ILE C   6      -8.148  11.455   8.007  0.00  0.00    +0.000 C 
ATOM     50  C   ILE C   6      -8.175  12.859   8.606  0.00  0.00    +0.000 C 
ATOM     51  O   ILE C   6      -9.047  13.190   9.403  0.00  0.00    +0.000 OA
ATOM     52  CB  ILE C   6      -6.968  10.673   8.654  0.00  0.00    +0.000 C 
ATOM     53  CG1 ILE C   6      -7.129   9.185   8.363  0.00  0.00    +0.000 C 
ATOM     54  CG2 ILE C   6      -6.928  10.931  10.182  0.00  0.00    +0.000 C 
ATOM     55  CD1 ILE C   6      -8.446   8.641   8.889  0.00  0.00    +0.000 C 
ATOM     56  N   TYR C   7      -7.185  13.665   8.240  0.00  0.00    +0.000 N 
ATOM     57  H   TYR C   7      -6.477  13.320   7.601  0.00  0.00    +0.000 HD
ATOM     58  CA  TYR C   7      -7.084  15.033   8.733  0.00  0.00    +0.000 C 
ATOM     59  C   TYR C   7      -8.248  15.911   8.261  0.00  0.00    +0.000 C 
ATOM     60  O   TYR C   7      -8.534  16.940   8.876  0.00  0.00    +0.000 OA
ATOM     61  CB  TYR C   7      -5.774  15.657   8.256  0.00  0.00    +0.000 C 
ATOM     62  CG  TYR C   7      -4.561  15.353   9.115  0.00  0.00    +0.000 A 
ATOM     63  CD1 TYR C   7      -4.429  15.909  10.392  0.00  0.00    +0.000 A 
ATOM     64  CD2 TYR C   7      -3.528  14.544   8.639  0.00  0.00    +0.000 A 
ATOM     65  CE1 TYR C   7      -3.300  15.672  11.170  0.00  0.00    +0.000 A 
ATOM     66  CE2 TYR C   7      -2.399  14.299   9.410  0.00  0.00    +0.000 A 
ATOM     67  CZ  TYR C   7      -2.288  14.870  10.678  0.00  0.00    +0.000 A 
ATOM     68  OH  TYR C   7      -1.161  14.661  11.450  0.00  0.00    +0.000 OA
ATOM     69  HH  TYR C   7      -1.301  14.976  12.332  0.00  0.00    +0.000 HD
ATOM     70  N   GLN C   8      -8.926  15.486   7.190  0.00  0.00    +0.000 N 
ATOM     71  H   GLN C   8      -8.620  14.642   6.727  0.00  0.00    +0.000 HD
ATOM     72  CA  GLN C   8     -10.017  16.252   6.591  0.00  0.00    +0.000 C 
ATOM     73  C   GLN C   8     -11.449  15.815   6.837  0.00  0.00    +0.000 C 
ATOM     74  O   GLN C   8     -12.252  16.553   7.383  0.00  0.00    +0.000 OA
ATOM     75  CB  GLN C   8      -9.855  16.290   5.079  0.00  0.00    +0.000 C 
ATOM     76  CG  GLN C   8      -8.783  17.180   4.528  0.00  0.00    +0.000 C 
ATOM     77  CD  GLN C   8      -8.893  17.290   3.025  0.00  0.00    +0.000 C 
ATOM     78  OE1 GLN C   8      -9.973  17.535   2.494  0.00  0.00    +0.000 OA
ATOM     79  NE2 GLN C   8      -7.778  17.117   2.330  0.00  0.00    +0.000 N 
ATOM     80 HE21 GLN C   8      -7.851  17.275   1.337  0.00  0.00    +0.000 HD
ATOM     81 HE22 GLN C   8      -6.948  16.821   2.812  0.00  0.00    +0.000 HD
ATOM     82  N   NME C   9     -11.780  14.631   6.340  0.00  0.00    +0.000 N 
ATOM     83  H   NME C   9     -11.041  14.015   6.018  0.00  0.00    +0.000 HD
ATOM     84  C   NME C   9     -13.133  14.090   6.435  0.00  0.00    +0.000 C 
TER 
REMARK  Name = /home/xianyang/aimnet2_score_pipelines/work/L1234-fixed-receptor-eint-20260921/L2/P36897/prepared.pdb
REMARK                            x       y       z     vdW  Elec       q    Type
REMARK                         _______ _______ _______ _____ _____    ______ ____
ATOM      1  CH3 ACE D   1      -3.204  18.293  20.803  0.00  0.00    +0.000 C 
ATOM      2  C   ACE D   1      -3.133  17.298  19.634  0.00  0.00    +0.000 C 
ATOM      3  O   ACE D   1      -2.729  16.145  19.782  0.00  0.00    +0.000 OA
ATOM      4  N   ILE D   2      -3.524  17.779  18.462  0.00  0.00    +0.000 N 
ATOM      5  H   ILE D   2      -3.789  18.751  18.386  0.00  0.00    +0.000 HD
ATOM      6  CA  ILE D   2      -3.466  17.010  17.229  0.00  0.00    +0.000 C 
ATOM      7  C   ILE D   2      -2.794  17.985  16.268  0.00  0.00    +0.000 C 
ATOM      8  O   ILE D   2      -3.132  19.168  16.276  0.00  0.00    +0.000 OA
ATOM      9  CB  ILE D   2      -4.887  16.622  16.749  0.00  0.00    +0.000 C 
ATOM     10  CG1 ILE D   2      -5.469  15.565  17.702  0.00  0.00    +0.000 C 
ATOM     11  CG2 ILE D   2      -4.837  16.102  15.333  0.00  0.00    +0.000 C 
ATOM     12  CD1 ILE D   2      -6.912  15.221  17.468  0.00  0.00    +0.000 C 
ATOM     13  N   LEU D   3      -1.829  17.512  15.476  0.00  0.00    +0.000 N 
ATOM     14  H   LEU D   3      -1.576  16.531  15.532  0.00  0.00    +0.000 HD
ATOM     15  CA  LEU D   3      -1.106  18.380  14.534  0.00  0.00    +0.000 C 
ATOM     16  C   LEU D   3      -2.032  19.231  13.670  0.00  0.00    +0.000 C 
ATOM     17  O   LEU D   3      -2.900  18.709  12.961  0.00  0.00    +0.000 OA
ATOM     18  CB  LEU D   3      -0.191  17.558  13.614  0.00  0.00    +0.000 C 
ATOM     19  CG  LEU D   3       0.636  18.382  12.619  0.00  0.00    +0.000 C 
ATOM     20  CD1 LEU D   3       1.560  19.333  13.395  0.00  0.00    +0.000 C 
ATOM     21  CD2 LEU D   3       1.447  17.466  11.721  0.00  0.00    +0.000 C 
ATOM     22  N   GLY D   4      -1.838  20.548  13.735  0.00  0.00    +0.000 N 
ATOM     23  H   GLY D   4      -1.121  20.942  14.326  0.00  0.00    +0.000 HD
ATOM     24  CA  GLY D   4      -2.665  21.463  12.966  0.00  0.00    +0.000 C 
ATOM     25  C   GLY D   4      -2.473  21.275  11.481  0.00  0.00    +0.000 C 
ATOM     26  O   GLY D   4      -1.481  21.747  10.914  0.00  0.00    +0.000 OA
ATOM     27  N   PHE D   5      -3.414  20.572  10.857  0.00  0.00    +0.000 N 
ATOM     28  H   PHE D   5      -4.151  20.165  11.411  0.00  0.00    +0.000 HD
ATOM     29  CA  PHE D   5      -3.372  20.291   9.421  0.00  0.00    +0.000 C 
ATOM     30  C   PHE D   5      -3.707  21.563   8.654  0.00  0.00    +0.000 C 
ATOM     31  O   PHE D   5      -4.619  22.305   9.024  0.00  0.00    +0.000 OA
ATOM     32  CB  PHE D   5      -4.397  19.207   9.080  0.00  0.00    +0.000 C 
ATOM     33  CG  PHE D   5      -4.513  18.896   7.610  0.00  0.00    +0.000 A 
ATOM     34  CD1 PHE D   5      -3.535  18.153   6.952  0.00  0.00    +0.000 A 
ATOM     35  CD2 PHE D   5      -5.631  19.313   6.895  0.00  0.00    +0.000 A 
ATOM     36  CE1 PHE D   5      -3.673  17.827   5.603  0.00  0.00    +0.000 A 
ATOM     37  CE2 PHE D   5      -5.786  18.994   5.543  0.00  0.00    +0.000 A 
ATOM     38  CZ  PHE D   5      -4.805  18.247   4.893  0.00  0.00    +0.000 A 
ATOM     39  N   ILE D   6      -2.980  21.823   7.582  0.00  0.00    +0.000 N 
ATOM     40  H   ILE D   6      -2.219  21.213   7.311  0.00  0.00    +0.000 HD
ATOM     41  CA  ILE D   6      -3.268  23.015   6.812  0.00  0.00    +0.000 C 
ATOM     42  C   ILE D   6      -3.949  22.681   5.490  0.00  0.00    +0.000 C 
ATOM     43  O   ILE D   6      -5.005  23.222   5.190  0.00  0.00    +0.000 OA
ATOM     44  CB  ILE D   6      -1.973  23.837   6.576  0.00  0.00    +0.000 C 
ATOM     45  CG1 ILE D   6      -1.654  24.628   7.848  0.00  0.00    +0.000 C 
ATOM     46  CG2 ILE D   6      -2.119  24.754   5.365  0.00  0.00    +0.000 C 
ATOM     47  CD1 ILE D   6      -0.345  25.397   7.808  0.00  0.00    +0.000 C 
ATOM     48  N   NME D   7      -3.373  21.764   4.720  0.00  0.00    +0.000 N 
ATOM     49  H   NME D   7      -2.541  21.300   5.057  0.00  0.00    +0.000 HD
ATOM     50  C   NME D   7      -3.942  21.429   3.424  0.00  0.00    +0.000 C 
TER 
REMARK  Name = /home/xianyang/aimnet2_score_pipelines/work/L1234-fixed-receptor-eint-20260921/L2/P36897/prepared.pdb
REMARK                            x       y       z     vdW  Elec       q    Type
REMARK                         _______ _______ _______ _____ _____    ______ ____
ATOM      1  CH3 ACE E   1       1.804  15.201  -3.466  0.00  0.00    +0.000 C 
ATOM      2  C   ACE E   1       2.221  15.807  -2.141  0.00  0.00    +0.000 C 
ATOM      3  O   ACE E   1       3.010  15.231  -1.394  0.00  0.00    +0.000 OA
ATOM      4  N   TRP E   2       1.668  16.976  -1.849  0.00  0.00    +0.000 N 
ATOM      5  H   TRP E   2       0.976  17.363  -2.470  0.00  0.00    +0.000 HD
ATOM      6  CA  TRP E   2       2.012  17.722  -0.646  0.00  0.00    +0.000 C 
ATOM      7  C   TRP E   2       0.984  17.671   0.475  0.00  0.00    +0.000 C 
ATOM      8  O   TRP E   2      -0.220  17.755   0.266  0.00  0.00    +0.000 OA
ATOM      9  CB  TRP E   2       2.236  19.200  -1.006  0.00  0.00    +0.000 C 
ATOM     10  CG  TRP E   2       3.561  19.527  -1.638  0.00  0.00    +0.000 A 
ATOM     11  CD1 TRP E   2       4.246  18.780  -2.550  0.00  0.00    +0.000 A 
ATOM     12  CD2 TRP E   2       4.308  20.734  -1.454  0.00  0.00    +0.000 A 
ATOM     13  NE1 TRP E   2       5.374  19.450  -2.954  0.00  0.00    +0.000 N 
ATOM     14  HE1 TRP E   2       6.050  19.097  -3.616  0.00  0.00    +0.000 HD
ATOM     15  CE2 TRP E   2       5.440  20.645  -2.295  0.00  0.00    +0.000 A 
ATOM     16  CE3 TRP E   2       4.125  21.885  -0.666  0.00  0.00    +0.000 A 
ATOM     17  CZ2 TRP E   2       6.392  21.671  -2.360  0.00  0.00    +0.000 A 
ATOM     18  CZ3 TRP E   2       5.063  22.901  -0.737  0.00  0.00    +0.000 A 
ATOM     19  CH2 TRP E   2       6.182  22.790  -1.575  0.00  0.00    +0.000 A 
ATOM     20  N   LEU E   3       1.491  17.506   1.680  0.00  0.00    +0.000 N 
ATOM     21  H   LEU E   3       2.475  17.277   1.776  0.00  0.00    +0.000 HD
ATOM     22  CA  LEU E   3       0.681  17.528   2.870  0.00  0.00    +0.000 C 
ATOM     23  C   LEU E   3       1.309  18.668   3.665  0.00  0.00    +0.000 C 
ATOM     24  O   LEU E   3       2.503  18.634   3.965  0.00  0.00    +0.000 OA
ATOM     25  CB  LEU E   3       0.777  16.190   3.607  0.00  0.00    +0.000 C 
ATOM     26  CG  LEU E   3      -0.592  15.493   3.669  0.00  0.00    +0.000 C 
ATOM     27  CD1 LEU E   3      -0.460  14.000   3.461  0.00  0.00    +0.000 C 
ATOM     28  CD2 LEU E   3      -1.236  15.763   5.012  0.00  0.00    +0.000 C 
ATOM     29  N   VAL E   4       0.513  19.684   3.983  0.00  0.00    +0.000 N 
ATOM     30  H   VAL E   4      -0.461  19.659   3.727  0.00  0.00    +0.000 HD
ATOM     31  CA  VAL E   4       1.034  20.841   4.715  0.00  0.00    +0.000 C 
ATOM     32  C   VAL E   4       0.454  20.983   6.122  0.00  0.00    +0.000 C 
ATOM     33  O   VAL E   4      -0.724  20.736   6.336  0.00  0.00    +0.000 OA
ATOM     34  CB  VAL E   4       0.768  22.153   3.932  0.00  0.00    +0.000 C 
ATOM     35  CG1 VAL E   4       1.548  23.296   4.561  0.00  0.00    +0.000 C 
ATOM     36  CG2 VAL E   4       1.166  21.985   2.457  0.00  0.00    +0.000 C 
ATOM     37  N   SER E   5       1.290  21.391   7.076  0.00  0.00    +0.000 N 
ATOM     38  H   SER E   5       2.274  21.538   6.863  0.00  0.00    +0.000 HD
ATOM     39  CA  SER E   5       0.865  21.549   8.468  0.00  0.00    +0.000 C 
ATOM     40  C   SER E   5       1.652  22.608   9.223  0.00  0.00    +0.000 C 
ATOM     41  O   SER E   5       2.586  23.220   8.697  0.00  0.00    +0.000 OA
ATOM     42  CB  SER E   5       1.033  20.233   9.226  0.00  0.00    +0.000 C 
ATOM     43  OG  SER E   5       2.407  20.004   9.543  0.00  0.00    +0.000 OA
ATOM     44  HG  SER E   5       2.703  20.658  10.216  0.00  0.00    +0.000 HD
ATOM     45  N   ASP E   6       1.278  22.805  10.481  0.00  0.00    +0.000 N 
ATOM     46  H   ASP E   6       0.423  22.383  10.833  0.00  0.00    +0.000 HD
ATOM     47  CA  ASP E   6       1.974  23.758  11.320  0.00  0.00    +0.000 C 
ATOM     48  C   ASP E   6       3.360  23.187  11.504  0.00  0.00    +0.000 C 
ATOM     49  O   ASP E   6       3.548  21.971  11.481  0.00  0.00    +0.000 OA
ATOM     50  CB  ASP E   6       1.314  23.886  12.689  0.00  0.00    +0.000 C 
ATOM     51  CG  ASP E   6      -0.055  24.493  12.622  0.00  0.00    +0.000 C 
ATOM     52  OD1 ASP E   6      -0.202  25.536  11.967  0.00  0.00    +0.000 OA
ATOM     53  OD2 ASP E   6      -0.984  23.938  13.239  0.00  0.00    +0.000 OA
ATOM     54  N   TYR E   7       4.320  24.084  11.685  0.00  0.00    +0.000 N 
ATOM     55  H   TYR E   7       4.060  25.058  11.741  0.00  0.00    +0.000 HD
ATOM     56  CA  TYR E   7       5.710  23.739  11.882  0.00  0.00    +0.000 C 
ATOM     57  C   TYR E   7       6.036  23.817  13.370  0.00  0.00    +0.000 C 
ATOM     58  O   TYR E   7       5.652  24.776  14.047  0.00  0.00    +0.000 OA
ATOM     59  CB  TYR E   7       6.588  24.731  11.128  0.00  0.00    +0.000 C 
ATOM     60  CG  TYR E   7       8.058  24.614  11.471  0.00  0.00    +0.000 A 
ATOM     61  CD1 TYR E   7       8.796  23.500  11.085  0.00  0.00    +0.000 A 
ATOM     62  CD2 TYR E   7       8.698  25.604  12.220  0.00  0.00    +0.000 A 
ATOM     63  CE1 TYR E   7      10.140  23.370  11.442  0.00  0.00    +0.000 A 
ATOM     64  CE2 TYR E   7      10.030  25.493  12.578  0.00  0.00    +0.000 A 
ATOM     65  CZ  TYR E   7      10.749  24.374  12.189  0.00  0.00    +0.000 A 
ATOM     66  OH  TYR E   7      12.073  24.255  12.556  0.00  0.00    +0.000 OA
ATOM     67  HH  TYR E   7      12.401  25.012  13.054  0.00  0.00    +0.000 HD
ATOM     68  N   HIS E   8       6.765  22.823  13.869  0.00  0.00    +0.000 N 
ATOM     69  H   HIS E   8       7.065  22.076  13.263  0.00  0.00    +0.000 HD
ATOM     70  CA  HIS E   8       7.156  22.783  15.273  0.00  0.00    +0.000 C 
ATOM     71  C   HIS E   8       8.669  22.631  15.401  0.00  0.00    +0.000 C 
ATOM     72  O   HIS E   8       9.219  21.551  15.214  0.00  0.00    +0.000 OA
ATOM     73  CB  HIS E   8       6.422  21.641  15.994  0.00  0.00    +0.000 C 
ATOM     74  CG  HIS E   8       4.939  21.848  16.074  0.00  0.00    +0.000 A 
ATOM     75  ND1 HIS E   8       4.371  22.874  16.801  0.00  0.00    +0.000 N 
ATOM     76  HD1 HIS E   8       4.874  23.581  17.309  0.00  0.00    +0.000 HD
ATOM     77  CD2 HIS E   8       3.915  21.218  15.452  0.00  0.00    +0.000 A 
ATOM     78  CE1 HIS E   8       3.062  22.869  16.617  0.00  0.00    +0.000 A 
ATOM     79  NE2 HIS E   8       2.759  21.875  15.803  0.00  0.00    +0.000 NA
ATOM     80  N   GLU E   9       9.330  23.740  15.713  0.00  0.00    +0.000 N 
ATOM     81  H   GLU E   9       8.821  24.607  15.790  0.00  0.00    +0.000 HD
ATOM     82  CA  GLU E   9      10.775  23.788  15.863  0.00  0.00    +0.000 C 
ATOM     83  C   GLU E   9      11.378  22.724  16.765  0.00  0.00    +0.000 C 
ATOM     84  O   GLU E   9      12.462  22.217  16.484  0.00  0.00    +0.000 OA
ATOM     85  CB  GLU E   9      11.198  25.161  16.377  0.00  0.00    +0.000 C 
ATOM     86  CG  GLU E   9      12.684  25.245  16.684  0.00  0.00    +0.000 C 
ATOM     87  CD  GLU E   9      13.157  26.660  16.930  0.00  0.00    +0.000 C 
ATOM     88  OE1 GLU E   9      12.666  27.296  17.890  0.00  0.00    +0.000 OA
ATOM     89  OE2 GLU E   9      14.021  27.133  16.161  0.00  0.00    +0.000 OA
ATOM     90  N   HIS E  10      10.697  22.399  17.856  0.00  0.00    +0.000 N 
ATOM     91  H   HIS E  10       9.836  22.874  18.070  0.00  0.00    +0.000 HD
ATOM     92  CA  HIS E  10      11.207  21.391  18.779  0.00  0.00    +0.000 C 
ATOM     93  C   HIS E  10      11.319  20.014  18.136  0.00  0.00    +0.000 C 
ATOM     94  O   HIS E  10      12.134  19.196  18.560  0.00  0.00    +0.000 OA
ATOM     95  CB  HIS E  10      10.303  21.262  20.015  0.00  0.00    +0.000 C 
ATOM     96  CG  HIS E  10      10.506  22.326  21.044  0.00  0.00    +0.000 A 
ATOM     97  ND1 HIS E  10      11.749  22.838  21.355  0.00  0.00    +0.000 N 
ATOM     98  HD1 HIS E  10      12.611  22.608  20.886  0.00  0.00    +0.000 HD
ATOM     99  CD2 HIS E  10       9.633  22.924  21.890  0.00  0.00    +0.000 A 
ATOM    100  CE1 HIS E  10      11.633  23.702  22.347  0.00  0.00    +0.000 A 
ATOM    101  NE2 HIS E  10      10.358  23.772  22.691  0.00  0.00    +0.000 NA
ATOM    102  N   GLY E  11      10.490  19.752  17.127  0.00  0.00    +0.000 N 
ATOM    103  H   GLY E  11       9.903  20.483  16.746  0.00  0.00    +0.000 HD
ATOM    104  CA  GLY E  11      10.512  18.446  16.489  0.00  0.00    +0.000 C 
ATOM    105  C   GLY E  11       9.749  17.393  17.293  0.00  0.00    +0.000 C 
ATOM    106  O   GLY E  11       8.851  17.727  18.079  0.00  0.00    +0.000 OA
ATOM    107  N   SER E  12      10.114  16.121  17.127  0.00  0.00    +0.000 N 
ATOM    108  H   SER E  12      10.901  15.907  16.535  0.00  0.00    +0.000 HD
ATOM    109  CA  SER E  12       9.426  15.030  17.829  0.00  0.00    +0.000 C 
ATOM    110  C   SER E  12       9.642  14.983  19.342  0.00  0.00    +0.000 C 
ATOM    111  O   SER E  12      10.634  15.484  19.873  0.00  0.00    +0.000 OA
ATOM    112  CB  SER E  12       9.840  13.674  17.258  0.00  0.00    +0.000 C 
ATOM    113  OG  SER E  12      11.100  13.280  17.779  0.00  0.00    +0.000 OA
ATOM    114  HG  SER E  12      11.438  13.992  18.368  0.00  0.00    +0.000 HD
ATOM    115  N   LEU E  13       8.694  14.369  20.034  0.00  0.00    +0.000 N 
ATOM    116  H   LEU E  13       7.902  13.971  19.553  0.00  0.00    +0.000 HD
ATOM    117  CA  LEU E  13       8.797  14.210  21.475  0.00  0.00    +0.000 C 
ATOM    118  C   LEU E  13      10.058  13.395  21.664  0.00  0.00    +0.000 C 
ATOM    119  O   LEU E  13      10.797  13.558  22.627  0.00  0.00    +0.000 OA
ATOM    120  CB  LEU E  13       7.592  13.439  22.016  0.00  0.00    +0.000 C 
ATOM    121  CG  LEU E  13       7.643  13.110  23.505  0.00  0.00    +0.000 C 
ATOM    122  CD1 LEU E  13       7.902  14.384  24.309  0.00  0.00    +0.000 C 
ATOM    123  CD2 LEU E  13       6.336  12.442  23.915  0.00  0.00    +0.000 C 
ATOM    124  N   NME E  14      10.295  12.503  20.720  0.00  0.00    +0.000 N 
ATOM    125  H   NME E  14       9.624  12.407  19.968  0.00  0.00    +0.000 HD
ATOM    126  C   NME E  14      11.480  11.673  20.746  0.00  0.00    +0.000 C 
TER 
REMARK  Name = /home/xianyang/aimnet2_score_pipelines/work/L1234-fixed-receptor-eint-20260921/L2/P36897/prepared.pdb
REMARK                            x       y       z     vdW  Elec       q    Type
REMARK                         _______ _______ _______ _____ _____    ______ ____
ATOM      1  CH3 ACE F   1       5.019   6.501  19.503  0.00  0.00    +0.000 C 
ATOM      2  C   ACE F   1       5.596   7.903  19.660  0.00  0.00    +0.000 C 
ATOM      3  O   ACE F   1       5.002   8.868  19.178  0.00  0.00    +0.000 OA
ATOM      4  N   SER F   2       6.743   8.006  20.330  0.00  0.00    +0.000 N 
ATOM      5  H   SER F   2       7.093   7.192  20.816  0.00  0.00    +0.000 HD
ATOM      6  CA  SER F   2       7.420   9.280  20.570  0.00  0.00    +0.000 C 
ATOM      7  C   SER F   2       7.836  10.032  19.308  0.00  0.00    +0.000 C 
ATOM      8  O   SER F   2       7.967  11.258  19.327  0.00  0.00    +0.000 OA
ATOM      9  CB  SER F   2       8.672   9.042  21.423  0.00  0.00    +0.000 C 
ATOM     10  OG  SER F   2       8.336   8.432  22.651  0.00  0.00    +0.000 OA
ATOM     11  HG  SER F   2       8.114   9.115  23.304  0.00  0.00    +0.000 HD
ATOM     12  N   LYS F   3       8.078   9.308  18.220  0.00  0.00    +0.000 N 
ATOM     13  H   LYS F   3       7.927   8.311  18.246  0.00  0.00    +0.000 HD
ATOM     14  CA  LYS F   3       8.496   9.966  16.983  0.00  0.00    +0.000 C 
ATOM     15  C   LYS F   3       7.324  10.556  16.207  0.00  0.00    +0.000 C 
ATOM     16  O   LYS F   3       7.520  11.383  15.311  0.00  0.00    +0.000 OA
ATOM     17  CB  LYS F   3       9.273   8.993  16.099  0.00  0.00    +0.000 C 
ATOM     18  CG  LYS F   3      10.630   8.606  16.651  0.00  0.00    +0.000 C 
ATOM     19  CD  LYS F   3      11.286   7.572  15.745  0.00  0.00    +0.000 C 
ATOM     20  CE  LYS F   3      12.708   7.253  16.183  0.00  0.00    +0.000 C 
ATOM     21  NZ  LYS F   3      12.765   6.548  17.495  0.00  0.00    +0.000 N 
ATOM     22  HZ1 LYS F   3      13.675   6.122  17.621  0.00  0.00    +0.000 HD
ATOM     23  HZ2 LYS F   3      12.062   5.820  17.540  0.00  0.00    +0.000 HD
ATOM     24  HZ3 LYS F   3      12.615   7.202  18.253  0.00  0.00    +0.000 HD
ATOM     25  N   ASN F   4       6.112  10.135  16.568  0.00  0.00    +0.000 N 
ATOM     26  H   ASN F   4       6.012   9.503  17.348  0.00  0.00    +0.000 HD
ATOM     27  CA  ASN F   4       4.888  10.623  15.929  0.00  0.00    +0.000 C 
ATOM     28  C   ASN F   4       4.163  11.658  16.761  0.00  0.00    +0.000 C 
ATOM     29  O   ASN F   4       3.009  11.980  16.482  0.00  0.00    +0.000 OA
ATOM     30  CB  ASN F   4       3.925   9.482  15.640  0.00  0.00    +0.000 C 
ATOM     31  CG  ASN F   4       4.353   8.661  14.467  0.00  0.00    +0.000 C 
ATOM     32  OD1 ASN F   4       5.018   9.163  13.556  0.00  0.00    +0.000 OA
ATOM     33  ND2 ASN F   4       3.962   7.395  14.459  0.00  0.00    +0.000 N 
ATOM     34 HD21 ASN F   4       4.021   6.979  13.544  0.00  0.00    +0.000 HD
ATOM     35 HD22 ASN F   4       3.268   7.105  15.122  0.00  0.00    +0.000 HD
ATOM     36  N   ILE F   5       4.831  12.156  17.794  0.00  0.00    +0.000 N 
ATOM     37  H   ILE F   5       5.786  11.872  17.950  0.00  0.00    +0.000 HD
ATOM     38  CA  ILE F   5       4.276  13.186  18.661  0.00  0.00    +0.000 C 
ATOM     39  C   ILE F   5       5.257  14.357  18.594  0.00  0.00    +0.000 C 
ATOM     40  O   ILE F   5       6.474  14.166  18.703  0.00  0.00    +0.000 OA
ATOM     41  CB  ILE F   5       4.161  12.696  20.121  0.00  0.00    +0.000 C 
ATOM     42  CG1 ILE F   5       3.054  11.645  20.228  0.00  0.00    +0.000 C 
ATOM     43  CG2 ILE F   5       3.873  13.890  21.070  0.00  0.00    +0.000 C 
ATOM     44  CD1 ILE F   5       3.094  10.851  21.501  0.00  0.00    +0.000 C 
ATOM     45  N   LEU F   6       4.732  15.563  18.399  0.00  0.00    +0.000 N 
ATOM     46  H   LEU F   6       3.722  15.677  18.368  0.00  0.00    +0.000 HD
ATOM     47  CA  LEU F   6       5.567  16.752  18.299  0.00  0.00    +0.000 C 
ATOM     48  C   LEU F   6       5.315  17.658  19.490  0.00  0.00    +0.000 C 
ATOM     49  O   LEU F   6       4.177  17.797  19.928  0.00  0.00    +0.000 OA
ATOM     50  CB  LEU F   6       5.248  17.498  17.002  0.00  0.00    +0.000 C 
ATOM     51  CG  LEU F   6       5.389  16.640  15.745  0.00  0.00    +0.000 C 
ATOM     52  CD1 LEU F   6       4.188  16.835  14.840  0.00  0.00    +0.000 C 
ATOM     53  CD2 LEU F   6       6.677  16.998  15.045  0.00  0.00    +0.000 C 
ATOM     54  N   VAL F   7       6.376  18.263  20.017  0.00  0.00    +0.000 N 
ATOM     55  H   VAL F   7       7.285  18.143  19.579  0.00  0.00    +0.000 HD
ATOM     56  CA  VAL F   7       6.249  19.154  21.162  0.00  0.00    +0.000 C 
ATOM     57  C   VAL F   7       6.230  20.613  20.708  0.00  0.00    +0.000 C 
ATOM     58  O   VAL F   7       7.152  21.090  20.044  0.00  0.00    +0.000 OA
ATOM     59  CB  VAL F   7       7.401  18.931  22.180  0.00  0.00    +0.000 C 
ATOM     60  CG1 VAL F   7       7.391  17.492  22.674  0.00  0.00    +0.000 C 
ATOM     61  CG2 VAL F   7       8.719  19.209  21.536  0.00  0.00    +0.000 C 
ATOM     62  N   NME F   8       5.162  21.320  21.063  0.00  0.00    +0.000 N 
ATOM     63  H   NME F   8       4.413  20.859  21.557  0.00  0.00    +0.000 HD
ATOM     64  C   NME F   8       5.016  22.712  20.673  0.00  0.00    +0.000 C 
TER 
REMARK  Name = /home/xianyang/aimnet2_score_pipelines/work/L1234-fixed-receptor-eint-20260921/L2/P36897/prepared.pdb
REMARK                            x       y       z     vdW  Elec       q    Type
REMARK                         _______ _______ _______ _____ _____    ______ ____
ATOM      1  CH3 ACE G   1       0.158  17.334  19.465  0.00  0.00    +0.000 C 
ATOM      2  C   ACE G   1       0.464  16.046  18.678  0.00  0.00    +0.000 C 
ATOM      3  O   ACE G   1       1.601  15.829  18.256  0.00  0.00    +0.000 OA
ATOM      4  N   ILE G   2      -0.539  15.180  18.515  0.00  0.00    +0.000 N 
ATOM      5  H   ILE G   2      -1.437  15.386  18.931  0.00  0.00    +0.000 HD
ATOM      6  CA  ILE G   2      -0.352  13.915  17.815  0.00  0.00    +0.000 C 
ATOM      7  C   ILE G   2      -0.217  14.085  16.302  0.00  0.00    +0.000 C 
ATOM      8  O   ILE G   2      -0.982  14.824  15.683  0.00  0.00    +0.000 OA
ATOM      9  CB  ILE G   2      -1.531  12.938  18.075  0.00  0.00    +0.000 C 
ATOM     10  CG1 ILE G   2      -1.814  12.818  19.580  0.00  0.00    +0.000 C 
ATOM     11  CG2 ILE G   2      -1.228  11.579  17.442  0.00  0.00    +0.000 C 
ATOM     12  CD1 ILE G   2      -0.672  12.310  20.399  0.00  0.00    +0.000 C 
ATOM     13  N   ALA G   3       0.752  13.387  15.710  0.00  0.00    +0.000 N 
ATOM     14  H   ALA G   3       1.346  12.762  16.244  0.00  0.00    +0.000 HD
ATOM     15  CA  ALA G   3       0.969  13.450  14.263  0.00  0.00    +0.000 C 
ATOM     16  C   ALA G   3       0.914  12.062  13.617  0.00  0.00    +0.000 C 
ATOM     17  O   ALA G   3       0.640  11.063  14.281  0.00  0.00    +0.000 OA
ATOM     18  CB  ALA G   3       2.315  14.127  13.952  0.00  0.00    +0.000 C 
ATOM     19  N   ASP G   4       1.173  12.019  12.316  0.00  0.00    +0.000 N 
ATOM     20  H   ASP G   4       1.340  12.885  11.832  0.00  0.00    +0.000 HD
ATOM     21  CA  ASP G   4       1.150  10.787  11.526  0.00  0.00    +0.000 C 
ATOM     22  C   ASP G   4      -0.153   9.997  11.698  0.00  0.00    +0.000 C 
ATOM     23  O   ASP G   4      -0.208   9.003  12.426  0.00  0.00    +0.000 OA
ATOM     24  CB  ASP G   4       2.333   9.891  11.889  0.00  0.00    +0.000 C 
ATOM     25  CG  ASP G   4       2.615   8.855  10.819  0.00  0.00    +0.000 C 
ATOM     26  OD1 ASP G   4       1.663   8.458  10.110  0.00  0.00    +0.000 OA
ATOM     27  OD2 ASP G   4       3.779   8.433  10.682  0.00  0.00    +0.000 OA
ATOM     28  N   LEU G   5      -1.199  10.445  11.017  0.00  0.00    +0.000 N 
ATOM     29  H   LEU G   5      -1.075  11.240  10.408  0.00  0.00    +0.000 HD
ATOM     30  CA  LEU G   5      -2.501   9.796  11.088  0.00  0.00    +0.000 C 
ATOM     31  C   LEU G   5      -2.746   8.929   9.854  0.00  0.00    +0.000 C 
ATOM     32  O   LEU G   5      -3.884   8.547   9.565  0.00  0.00    +0.000 OA
ATOM     33  CB  LEU G   5      -3.599  10.858  11.202  0.00  0.00    +0.000 C 
ATOM     34  CG  LEU G   5      -3.420  11.883  12.328  0.00  0.00    +0.000 C 
ATOM     35  CD1 LEU G   5      -4.661  12.775  12.406  0.00  0.00    +0.000 C 
ATOM     36  CD2 LEU G   5      -3.216  11.157  13.653  0.00  0.00    +0.000 C 
ATOM     37  N   NME G   6      -1.671   8.630   9.128  0.00  0.00    +0.000 N 
ATOM     38  H   NME G   6      -0.751   8.877   9.482  0.00  0.00    +0.000 HD
ATOM     39  C   NME G   6      -1.771   7.818   7.922  0.00  0.00    +0.000 C 
TER 
