REMARK  Name = /data/user_data/xianyang/t3-aimnet-affinity-balanced/L4/Q08211/pocket.pdb
REMARK                            x       y       z     vdW  Elec       q    Type
REMARK                         _______ _______ _______ _____ _____    ______ ____
ATOM      1  N   TRP A   1      22.890  25.405 -64.471  0.00  0.00    +0.000 N 
ATOM      2  CA  TRP A   1      21.878  24.338 -64.700  0.00  0.00    +0.000 C 
ATOM      3  C   TRP A   1      22.339  23.034 -64.040  0.00  0.00    +0.000 C 
ATOM      4  O   TRP A   1      23.456  22.580 -64.352  0.00  0.00    +0.000 OA
ATOM      5  CB  TRP A   1      21.622  24.147 -66.201  0.00  0.00    +0.000 C 
ATOM      6  CG  TRP A   1      20.642  23.059 -66.520  0.00  0.00    +0.000 C 
ATOM      7  CD1 TRP A   1      20.927  21.789 -66.929  0.00  0.00    +0.000 C 
ATOM      8  CD2 TRP A   1      19.207  23.143 -66.449  0.00  0.00    +0.000 C 
ATOM      9  NE1 TRP A   1      19.772  21.079 -67.120  0.00  0.00    +0.000 NA
ATOM     10  CE2 TRP A   1      18.701  21.883 -66.833  0.00  0.00    +0.000 C 
ATOM     11  CE3 TRP A   1      18.305  24.154 -66.100  0.00  0.00    +0.000 C 
ATOM     12  CZ2 TRP A   1      17.334  21.612 -66.877  0.00  0.00    +0.000 C 
ATOM     13  CZ3 TRP A   1      16.954  23.886 -66.144  0.00  0.00    +0.000 C 
ATOM     14  CH2 TRP A   1      16.478  22.631 -66.528  0.00  0.00    +0.000 C 
ATOM     15  H   TRP A   1      22.578  26.270 -64.912  0.00  0.00    +0.000 HD
ATOM     16  H   TRP A   1      23.782  25.120 -64.875  0.00  0.00    +0.000 HD
ATOM     17  H   TRP A   1      23.004  25.556 -63.469  0.00  0.00    +0.000 HD
TER 
REMARK  Name = /data/user_data/xianyang/t3-aimnet-affinity-balanced/L4/Q08211/pocket.pdb
REMARK                            x       y       z     vdW  Elec       q    Type
REMARK                         _______ _______ _______ _____ _____    ______ ____
ATOM      1  N   PRO B   1      21.760  19.209 -64.126  0.00  0.00    +0.000 N 
ATOM      2  CA  PRO B   1      21.170  18.283 -65.091  0.00  0.00    +0.000 C 
ATOM      3  C   PRO B   1      20.363  17.161 -64.420  0.00  0.00    +0.000 C 
ATOM      4  O   PRO B   1      19.437  16.664 -65.038  0.00  0.00    +0.000 OA
ATOM      5  CB  PRO B   1      22.396  17.720 -65.822  0.00  0.00    +0.000 C 
ATOM      6  CG  PRO B   1      23.487  17.763 -64.781  0.00  0.00    +0.000 C 
ATOM      7  CD  PRO B   1      23.212  19.019 -63.983  0.00  0.00    +0.000 C 
ATOM      8  N   TRP B   2      20.717  16.812 -63.178  0.00  0.00    +0.000 N 
ATOM      9  CA  TRP B   2      20.132  15.673 -62.423  0.00  0.00    +0.000 C 
ATOM     10  C   TRP B   2      18.749  16.056 -61.883  0.00  0.00    +0.000 C 
ATOM     11  O   TRP B   2      17.807  15.271 -62.085  0.00  0.00    +0.000 OA
ATOM     12  CB  TRP B   2      21.083  15.213 -61.312  0.00  0.00    +0.000 C 
ATOM     13  CG  TRP B   2      22.507  15.098 -61.761  0.00  0.00    +0.000 C 
ATOM     14  CD1 TRP B   2      23.603  15.635 -61.153  0.00  0.00    +0.000 C 
ATOM     15  CD2 TRP B   2      22.993  14.434 -62.944  0.00  0.00    +0.000 A 
ATOM     16  NE1 TRP B   2      24.735  15.341 -61.863  0.00  0.00    +0.000 NA
ATOM     17  CE2 TRP B   2      24.393  14.604 -62.967  0.00  0.00    +0.000 A 
ATOM     18  CE3 TRP B   2      22.390  13.707 -63.978  0.00  0.00    +0.000 A 
ATOM     19  CZ2 TRP B   2      25.193  14.076 -63.980  0.00  0.00    +0.000 A 
ATOM     20  CZ3 TRP B   2      23.181  13.187 -64.979  0.00  0.00    +0.000 A 
ATOM     21  CH2 TRP B   2      24.564  13.368 -64.978  0.00  0.00    +0.000 A 
ATOM     22  N   THR B   3      18.632  17.220 -61.239  0.00  0.00    +0.000 N 
ATOM     23  CA  THR B   3      17.357  17.754 -60.684  0.00  0.00    +0.000 C 
ATOM     24  C   THR B   3      16.541  18.415 -61.803  0.00  0.00    +0.000 C 
ATOM     25  O   THR B   3      15.333  18.633 -61.587  0.00  0.00    +0.000 OA
ATOM     26  CB  THR B   3      17.608  18.719 -59.516  0.00  0.00    +0.000 C 
ATOM     27  OG1 THR B   3      18.401  19.813 -59.977  0.00  0.00    +0.000 OA
ATOM     28  CG2 THR B   3      18.297  18.057 -58.343  0.00  0.00    +0.000 C 
ATOM     29  N   SER B   4      17.175  18.705 -62.948  0.00  0.00    +0.000 N 
ATOM     30  CA  SER B   4      16.573  19.382 -64.130  0.00  0.00    +0.000 C 
ATOM     31  C   SER B   4      15.987  20.730 -63.695  0.00  0.00    +0.000 C 
ATOM     32  O   SER B   4      14.832  21.024 -64.060  0.00  0.00    +0.000 OA
ATOM     33  CB  SER B   4      15.542  18.509 -64.807  0.00  0.00    +0.000 C 
ATOM     34  OG  SER B   4      16.154  17.384 -65.420  0.00  0.00    +0.000 OA
ATOM     35  N   SER B   5      16.771  21.503 -62.939  0.00  0.00    +0.000 N 
ATOM     36  CA  SER B   5      16.385  22.801 -62.325  0.00  0.00    +0.000 C 
ATOM     37  CB  SER B   5      17.540  23.799 -62.458  0.00  0.00    +0.000 C 
ATOM     38  OG  SER B   5      18.662  23.364 -62.793  0.00  0.00    +0.000 OA
ATOM     39  C   SER B   5      15.996  22.614 -60.881  0.00  0.00    +0.000 C 
ATOM     40  O   SER B   5      14.935  21.679 -60.756  0.00  0.00    +0.000 OA
ATOM     41  H   PRO B   1      21.319  19.061 -63.218  0.00  0.00    +0.000 HD
ATOM     42  H   PRO B   1      21.602  20.157 -64.468  0.00  0.00    +0.000 HD
ATOM     43  H   TRP B   2      21.414  17.347 -62.733  0.00  0.00    +0.000 HD
ATOM     44  H   THR B   3      19.445  17.763 -61.123  0.00  0.00    +0.000 HD
ATOM     45  H   THR B   3      19.259  19.483 -60.286  0.00  0.00    +0.000 HD
ATOM     46  H   SER B   4      18.123  18.448 -63.013  0.00  0.00    +0.000 HD
ATOM     47  H   SER B   4      16.604  16.853 -64.745  0.00  0.00    +0.000 HD
ATOM     48  H   SER B   5      17.688  21.184 -62.773  0.00  0.00    +0.000 HD
ATOM     49  H   SER B   5      14.158  22.005 -61.237  0.00  0.00    +0.000 HD
TER 
REMARK  Name = /data/user_data/xianyang/t3-aimnet-affinity-balanced/L4/Q08211/pocket.pdb
REMARK                            x       y       z     vdW  Elec       q    Type
REMARK                         _______ _______ _______ _____ _____    ______ ____
ATOM      1  N   VAL C   1      26.513  10.622 -68.245  0.00  0.00    +0.000 N 
ATOM      2  CA  VAL C   1      25.464   9.603 -67.943  0.00  0.00    +0.000 C 
ATOM      3  C   VAL C   1      26.037   8.229 -68.303  0.00  0.00    +0.000 C 
ATOM      4  O   VAL C   1      26.518   8.075 -69.439  0.00  0.00    +0.000 OA
ATOM      5  CB  VAL C   1      24.155   9.886 -68.708  0.00  0.00    +0.000 C 
ATOM      6  CG1 VAL C   1      23.192   8.709 -68.650  0.00  0.00    +0.000 C 
ATOM      7  CG2 VAL C   1      23.476  11.151 -68.211  0.00  0.00    +0.000 C 
ATOM      8  H   VAL C   1      26.161  11.551 -68.015  0.00  0.00    +0.000 HD
ATOM      9  H   VAL C   1      26.749  10.584 -69.237  0.00  0.00    +0.000 HD
ATOM     10  H   VAL C   1      27.346  10.427 -67.690  0.00  0.00    +0.000 HD
TER 
REMARK  Name = /data/user_data/xianyang/t3-aimnet-affinity-balanced/L4/Q08211/pocket.pdb
REMARK                            x       y       z     vdW  Elec       q    Type
REMARK                         _______ _______ _______ _____ _____    ______ ____
ATOM      1  N   SER D   1      20.963   6.504 -59.980  0.00  0.00    +0.000 N 
ATOM      2  CA  SER D   1      19.499   6.722 -60.125  0.00  0.00    +0.000 C 
ATOM      3  C   SER D   1      18.862   5.461 -60.719  0.00  0.00    +0.000 C 
ATOM      4  O   SER D   1      19.052   5.212 -61.925  0.00  0.00    +0.000 OA
ATOM      5  CB  SER D   1      19.201   7.940 -60.961  0.00  0.00    +0.000 C 
ATOM      6  OG  SER D   1      17.826   8.282 -60.871  0.00  0.00    +0.000 OA
ATOM      7  N   VAL D   2      18.160   4.687 -59.889  0.00  0.00    +0.000 N 
ATOM      8  CA  VAL D   2      17.445   3.441 -60.296  0.00  0.00    +0.000 C 
ATOM      9  C   VAL D   2      15.948   3.650 -60.047  0.00  0.00    +0.000 C 
ATOM     10  O   VAL D   2      15.562   4.773 -59.665  0.00  0.00    +0.000 OA
ATOM     11  CB  VAL D   2      17.991   2.206 -59.555  0.00  0.00    +0.000 C 
ATOM     12  CG1 VAL D   2      19.453   1.962 -59.887  0.00  0.00    +0.000 C 
ATOM     13  CG2 VAL D   2      17.791   2.299 -58.051  0.00  0.00    +0.000 C 
ATOM     14  H   SER D   1      21.394   7.340 -59.585  0.00  0.00    +0.000 HD
ATOM     15  H   SER D   1      21.370   6.312 -60.895  0.00  0.00    +0.000 HD
ATOM     16  H   SER D   1      21.129   5.711 -59.361  0.00  0.00    +0.000 HD
ATOM     17  H   SER D   1      17.602   8.479 -59.948  0.00  0.00    +0.000 HD
ATOM     18  H   VAL D   2      18.110   4.956 -58.943  0.00  0.00    +0.000 HD
TER 
REMARK  Name = /data/user_data/xianyang/t3-aimnet-affinity-balanced/L4/Q08211/pocket.pdb
REMARK                            x       y       z     vdW  Elec       q    Type
REMARK                         _______ _______ _______ _____ _____    ______ ____
ATOM      1  N   GLU E   1      14.857   4.622 -56.128  0.00  0.00    +0.000 N 
ATOM      2  CA  GLU E   1      16.057   4.918 -55.296  0.00  0.00    +0.000 C 
ATOM      3  C   GLU E   1      17.036   5.781 -56.099  0.00  0.00    +0.000 C 
ATOM      4  O   GLU E   1      17.226   5.512 -57.299  0.00  0.00    +0.000 OA
ATOM      5  CB  GLU E   1      16.722   3.623 -54.823  0.00  0.00    +0.000 C 
ATOM      6  CG  GLU E   1      17.606   3.801 -53.600  0.00  0.00    +0.000 C 
ATOM      7  CD  GLU E   1      18.238   2.514 -53.091  0.00  0.00    +0.000 C 
ATOM      8  OE2 GLU E   1      17.488   1.557 -52.816  0.00  0.00    +0.000 OA
ATOM      9  OE1 GLU E   1      19.480   2.466 -52.982  0.00  0.00    +0.000 OA
ATOM     10  N   SER E   2      17.629   6.785 -55.452  0.00  0.00    +0.000 N 
ATOM     11  CA  SER E   2      18.606   7.718 -56.069  0.00  0.00    +0.000 C 
ATOM     12  CB  SER E   2      19.436   8.410 -54.985  0.00  0.00    +0.000 C 
ATOM     13  OG  SER E   2      18.860   8.789 -53.948  0.00  0.00    +0.000 OA
ATOM     14  C   SER E   2      17.906   8.726 -56.938  0.00  0.00    +0.000 C 
ATOM     15  O   SER E   2      17.082   9.577 -56.157  0.00  0.00    +0.000 OA
ATOM     16  H   GLU E   1      14.430   5.497 -56.432  0.00  0.00    +0.000 HD
ATOM     17  H   GLU E   1      14.184   4.089 -55.577  0.00  0.00    +0.000 HD
ATOM     18  H   GLU E   1      15.135   4.078 -56.944  0.00  0.00    +0.000 HD
ATOM     19  H   SER E   2      17.404   6.916 -54.503  0.00  0.00    +0.000 HD
ATOM     20  H   SER E   2      17.629  10.055 -55.514  0.00  0.00    +0.000 HD
TER 
REMARK  Name = /data/user_data/xianyang/t3-aimnet-affinity-balanced/L4/Q08211/pocket.pdb
REMARK                            x       y       z     vdW  Elec       q    Type
REMARK                         _______ _______ _______ _____ _____    ______ ____
ATOM      1  N   LEU F   1      21.657  11.532 -55.933  0.00  0.00    +0.000 N 
ATOM      2  CA  LEU F   1      22.073  12.442 -57.033  0.00  0.00    +0.000 C 
ATOM      3  C   LEU F   1      23.482  12.950 -56.743  0.00  0.00    +0.000 C 
ATOM      4  O   LEU F   1      23.818  13.232 -55.594  0.00  0.00    +0.000 OA
ATOM      5  CB  LEU F   1      21.089  13.610 -57.153  0.00  0.00    +0.000 C 
ATOM      6  CG  LEU F   1      19.607  13.253 -57.283  0.00  0.00    +0.000 C 
ATOM      7  CD2 LEU F   1      18.835  14.425 -57.866  0.00  0.00    +0.000 C 
ATOM      8  CD1 LEU F   1      19.388  12.012 -58.138  0.00  0.00    +0.000 C 
ATOM      9  H   LEU F   1      20.715  11.186 -56.116  0.00  0.00    +0.000 HD
ATOM     10  H   LEU F   1      21.666  12.041 -55.049  0.00  0.00    +0.000 HD
ATOM     11  H   LEU F   1      22.304  10.745 -55.879  0.00  0.00    +0.000 HD
TER 
REMARK  Name = /data/user_data/xianyang/t3-aimnet-affinity-balanced/L4/Q08211/pocket.pdb
REMARK                            x       y       z     vdW  Elec       q    Type
REMARK                         _______ _______ _______ _____ _____    ______ ____
ATOM      1  N   MET G   1      26.655  10.214 -63.398  0.00  0.00    +0.000 N 
ATOM      2  CA  MET G   1      25.366   9.627 -62.945  0.00  0.00    +0.000 C 
ATOM      3  C   MET G   1      25.230   8.220 -63.534  0.00  0.00    +0.000 C 
ATOM      4  O   MET G   1      24.933   8.107 -64.738  0.00  0.00    +0.000 OA
ATOM      5  CB  MET G   1      24.179  10.485 -63.392  0.00  0.00    +0.000 C 
ATOM      6  CG  MET G   1      22.828   9.857 -63.107  0.00  0.00    +0.000 C 
ATOM      7  SD  MET G   1      22.558   9.563 -61.346  0.00  0.00    +0.000 S 
ATOM      8  CE  MET G   1      21.546  10.984 -60.938  0.00  0.00    +0.000 C 
ATOM      9  N   PHE G   2      25.452   7.192 -62.713  0.00  0.00    +0.000 N 
ATOM     10  CA  PHE G   2      25.168   5.773 -63.046  0.00  0.00    +0.000 C 
ATOM     11  C   PHE G   2      23.662   5.543 -62.875  0.00  0.00    +0.000 C 
ATOM     12  O   PHE G   2      23.097   6.024 -61.879  0.00  0.00    +0.000 OA
ATOM     13  CB  PHE G   2      26.027   4.845 -62.183  0.00  0.00    +0.000 C 
ATOM     14  CG  PHE G   2      27.511   5.058 -62.345  0.00  0.00    +0.000 A 
ATOM     15  CD1 PHE G   2      28.208   4.443 -63.374  0.00  0.00    +0.000 A 
ATOM     16  CD2 PHE G   2      28.209   5.889 -61.481  0.00  0.00    +0.000 A 
ATOM     17  CE1 PHE G   2      29.571   4.649 -63.530  0.00  0.00    +0.000 A 
ATOM     18  CE2 PHE G   2      29.572   6.090 -61.636  0.00  0.00    +0.000 A 
ATOM     19  CZ  PHE G   2      30.251   5.468 -62.659  0.00  0.00    +0.000 A 
ATOM     20  N   CYS G   3      23.020   4.868 -63.833  0.00  0.00    +0.000 N 
ATOM     21  CA  CYS G   3      21.546   4.668 -63.860  0.00  0.00    +0.000 C 
ATOM     22  C   CYS G   3      21.166   3.458 -64.718  0.00  0.00    +0.000 C 
ATOM     23  O   CYS G   3      21.973   3.050 -65.572  0.00  0.00    +0.000 OA
ATOM     24  CB  CYS G   3      20.842   5.899 -64.414  0.00  0.00    +0.000 C 
ATOM     25  SG  CYS G   3      21.081   6.111 -66.197  0.00  0.00    +0.000 S 
ATOM     26  N   THR G   4      19.970   2.916 -64.481  0.00  0.00    +0.000 N 
ATOM     27  CA  THR G   4      19.268   1.969 -65.386  0.00  0.00    +0.000 C 
ATOM     28  C   THR G   4      18.625   2.777 -66.520  0.00  0.00    +0.000 C 
ATOM     29  O   THR G   4      18.253   3.943 -66.274  0.00  0.00    +0.000 OA
ATOM     30  CB  THR G   4      18.244   1.132 -64.614  0.00  0.00    +0.000 C 
ATOM     31  OG1 THR G   4      17.444   2.040 -63.857  0.00  0.00    +0.000 OA
ATOM     32  CG2 THR G   4      18.889   0.113 -63.701  0.00  0.00    +0.000 C 
ATOM     33  H   MET G   1      27.426   9.623 -63.087  0.00  0.00    +0.000 HD
ATOM     34  H   MET G   1      26.761  11.148 -63.002  0.00  0.00    +0.000 HD
ATOM     35  H   MET G   1      26.662  10.274 -64.416  0.00  0.00    +0.000 HD
ATOM     36  H   PHE G   2      25.830   7.388 -61.825  0.00  0.00    +0.000 HD
ATOM     37  H   CYS G   3      23.554   4.480 -64.564  0.00  0.00    +0.000 HD
ATOM     38  H   CYS G   3      20.555   5.043 -66.855  0.00  0.00    +0.000 HD
ATOM     39  H   THR G   4      19.518   3.162 -63.642  0.00  0.00    +0.000 HD
ATOM     40  H   THR G   4      18.009   2.531 -63.239  0.00  0.00    +0.000 HD
TER 
REMARK  Name = /data/user_data/xianyang/t3-aimnet-affinity-balanced/L4/Q08211/pocket.pdb
REMARK                            x       y       z     vdW  Elec       q    Type
REMARK                         _______ _______ _______ _____ _____    ______ ____
ATOM      1  N   VAL H   1      15.076   4.533 -66.020  0.00  0.00    +0.000 N 
ATOM      2  CA  VAL H   1      15.126   5.843 -65.305  0.00  0.00    +0.000 C 
ATOM      3  C   VAL H   1      15.403   6.948 -66.329  0.00  0.00    +0.000 C 
ATOM      4  O   VAL H   1      14.630   7.929 -66.353  0.00  0.00    +0.000 OA
ATOM      5  CB  VAL H   1      16.185   5.840 -64.187  0.00  0.00    +0.000 C 
ATOM      6  CG1 VAL H   1      16.519   7.245 -63.707  0.00  0.00    +0.000 C 
ATOM      7  CG2 VAL H   1      15.760   4.969 -63.018  0.00  0.00    +0.000 C 
ATOM      8  N   LEU H   2      16.465   6.785 -67.131  0.00  0.00    +0.000 N 
ATOM      9  CA  LEU H   2      16.940   7.788 -68.124  0.00  0.00    +0.000 C 
ATOM     10  C   LEU H   2      15.794   8.148 -69.078  0.00  0.00    +0.000 C 
ATOM     11  O   LEU H   2      15.549   9.356 -69.259  0.00  0.00    +0.000 OA
ATOM     12  CB  LEU H   2      18.149   7.230 -68.885  0.00  0.00    +0.000 C 
ATOM     13  CG  LEU H   2      18.671   8.100 -70.031  0.00  0.00    +0.000 C 
ATOM     14  CD2 LEU H   2      19.096   9.473 -69.531  0.00  0.00    +0.000 C 
ATOM     15  CD1 LEU H   2      19.823   7.416 -70.752  0.00  0.00    +0.000 C 
ATOM     16  H   VAL H   1      14.366   4.572 -66.751  0.00  0.00    +0.000 HD
ATOM     17  H   VAL H   1      14.842   3.793 -65.358  0.00  0.00    +0.000 HD
ATOM     18  H   VAL H   1      15.986   4.340 -66.439  0.00  0.00    +0.000 HD
ATOM     19  H   LEU H   2      16.967   5.941 -67.058  0.00  0.00    +0.000 HD
TER 
REMARK  Name = /data/user_data/xianyang/t3-aimnet-affinity-balanced/L4/Q08211/pocket.pdb
REMARK                            x       y       z     vdW  Elec       q    Type
REMARK                         _______ _______ _______ _____ _____    ______ ____
ATOM      1  N   LYS I   1      13.128  10.335 -67.669  0.00  0.00    +0.000 N 
ATOM      2  CA  LYS I   1      13.659  11.701 -67.395  0.00  0.00    +0.000 C 
ATOM      3  C   LYS I   1      13.918  12.467 -68.704  0.00  0.00    +0.000 C 
ATOM      4  O   LYS I   1      14.316  13.646 -68.607  0.00  0.00    +0.000 OA
ATOM      5  CB  LYS I   1      14.946  11.617 -66.567  0.00  0.00    +0.000 C 
ATOM      6  CG  LYS I   1      14.816  10.929 -65.214  0.00  0.00    +0.000 C 
ATOM      7  CD  LYS I   1      14.095  11.744 -64.160  0.00  0.00    +0.000 C 
ATOM      8  CE  LYS I   1      13.740  10.922 -62.938  0.00  0.00    +0.000 C 
ATOM      9  NZ  LYS I   1      13.030  11.726 -61.916  0.00  0.00    +0.000 N 
ATOM     10  N   LEU I   2      13.683  11.847 -69.871  0.00  0.00    +0.000 N 
ATOM     11  CA  LEU I   2      13.951  12.443 -71.214  0.00  0.00    +0.000 C 
ATOM     12  C   LEU I   2      12.741  13.236 -71.736  0.00  0.00    +0.000 C 
ATOM     13  O   LEU I   2      12.858  13.775 -72.855  0.00  0.00    +0.000 OA
ATOM     14  CB  LEU I   2      14.326  11.339 -72.210  0.00  0.00    +0.000 C 
ATOM     15  CG  LEU I   2      15.718  10.730 -72.054  0.00  0.00    +0.000 C 
ATOM     16  CD1 LEU I   2      16.022   9.784 -73.205  0.00  0.00    +0.000 C 
ATOM     17  CD2 LEU I   2      16.782  11.807 -71.958  0.00  0.00    +0.000 C 
ATOM     18  H   LYS I   1      12.273  10.407 -68.220  0.00  0.00    +0.000 HD
ATOM     19  H   LYS I   1      12.925   9.866 -66.786  0.00  0.00    +0.000 HD
ATOM     20  H   LYS I   1      13.823   9.798 -68.188  0.00  0.00    +0.000 HD
ATOM     21  H   LYS I   1      13.633  12.487 -61.604  0.00  0.00    +0.000 HD
ATOM     22  H   LYS I   1      12.792  11.132 -61.121  0.00  0.00    +0.000 HD
ATOM     23  H   LYS I   1      12.176  12.112 -62.320  0.00  0.00    +0.000 HD
ATOM     24  H   LEU I   2      13.308  10.937 -69.840  0.00  0.00    +0.000 HD
TER 
REMARK  Name = /data/user_data/xianyang/t3-aimnet-affinity-balanced/L4/Q08211/pocket.pdb
REMARK                            x       y       z     vdW  Elec       q    Type
REMARK                         _______ _______ _______ _____ _____    ______ ____
ATOM      1  N   ALA J   1      11.818  16.152 -70.890  0.00  0.00    +0.000 N 
ATOM      2  CA  ALA J   1      12.401  17.502 -71.077  0.00  0.00    +0.000 C 
ATOM      3  C   ALA J   1      13.539  17.447 -72.104  0.00  0.00    +0.000 C 
ATOM      4  O   ALA J   1      13.764  18.463 -72.786  0.00  0.00    +0.000 OA
ATOM      5  CB  ALA J   1      12.882  18.036 -69.749  0.00  0.00    +0.000 C 
ATOM      6  N   GLY J   2      14.234  16.308 -72.192  0.00  0.00    +0.000 N 
ATOM      7  CA  GLY J   2      15.358  16.073 -73.119  0.00  0.00    +0.000 C 
ATOM      8  C   GLY J   2      16.666  15.905 -72.369  0.00  0.00    +0.000 C 
ATOM      9  O   GLY J   2      16.664  16.090 -71.135  0.00  0.00    +0.000 OA
ATOM     10  N   ILE J   3      17.745  15.572 -73.085  0.00  0.00    +0.000 N 
ATOM     11  CA  ILE J   3      19.116  15.381 -72.519  0.00  0.00    +0.000 C 
ATOM     12  C   ILE J   3      19.739  16.770 -72.322  0.00  0.00    +0.000 C 
ATOM     13  O   ILE J   3      20.479  17.227 -73.216  0.00  0.00    +0.000 OA
ATOM     14  CB  ILE J   3      19.969  14.460 -73.419  0.00  0.00    +0.000 C 
ATOM     15  CG1 ILE J   3      19.285  13.109 -73.653  0.00  0.00    +0.000 C 
ATOM     16  CG2 ILE J   3      21.368  14.277 -72.846  0.00  0.00    +0.000 C 
ATOM     17  CD1 ILE J   3      19.873  12.293 -74.781  0.00  0.00    +0.000 C 
ATOM     18  N   ARG J   4      19.430  17.412 -71.189  0.00  0.00    +0.000 N 
ATOM     19  CA  ARG J   4      19.820  18.812 -70.867  0.00  0.00    +0.000 C 
ATOM     20  C   ARG J   4      21.009  18.817 -69.898  0.00  0.00    +0.000 C 
ATOM     21  O   ARG J   4      20.846  18.337 -68.759  0.00  0.00    +0.000 OA
ATOM     22  CB  ARG J   4      18.633  19.561 -70.253  0.00  0.00    +0.000 C 
ATOM     23  CG  ARG J   4      17.453  19.747 -71.196  0.00  0.00    +0.000 C 
ATOM     24  CD  ARG J   4      16.307  20.479 -70.521  0.00  0.00    +0.000 C 
ATOM     25  NE  ARG J   4      15.182  20.716 -71.416  0.00  0.00    +0.000 N 
ATOM     26  CZ  ARG J   4      14.054  21.339 -71.077  0.00  0.00    +0.000 C 
ATOM     27  NH2 ARG J   4      13.882  21.795 -69.846  0.00  0.00    +0.000 N 
ATOM     28  NH1 ARG J   4      13.096  21.502 -71.974  0.00  0.00    +0.000 N 
ATOM     29  N   GLY J   5      22.154  19.344 -70.341  0.00  0.00    +0.000 N 
ATOM     30  CA  GLY J   5      23.342  19.599 -69.501  0.00  0.00    +0.000 C 
ATOM     31  C   GLY J   5      24.243  18.382 -69.369  0.00  0.00    +0.000 C 
ATOM     32  O   GLY J   5      24.855  18.227 -68.293  0.00  0.00    +0.000 OA
ATOM     33  N   ILE J   6      24.340  17.565 -70.425  0.00  0.00    +0.000 N 
ATOM     34  CA  ILE J   6      25.161  16.316 -70.484  0.00  0.00    +0.000 C 
ATOM     35  C   ILE J   6      26.117  16.428 -71.677  0.00  0.00    +0.000 C 
ATOM     36  O   ILE J   6      25.662  16.852 -72.754  0.00  0.00    +0.000 OA
ATOM     37  CB  ILE J   6      24.255  15.070 -70.585  0.00  0.00    +0.000 C 
ATOM     38  CG1 ILE J   6      23.237  15.005 -69.442  0.00  0.00    +0.000 C 
ATOM     39  CG2 ILE J   6      25.078  13.791 -70.676  0.00  0.00    +0.000 C 
ATOM     40  CD1 ILE J   6      23.846  14.927 -68.057  0.00  0.00    +0.000 C 
ATOM     41  H   ALA J   1      11.494  15.794 -71.789  0.00  0.00    +0.000 HD
ATOM     42  H   ALA J   1      11.032  16.208 -70.243  0.00  0.00    +0.000 HD
ATOM     43  H   ALA J   1      12.527  15.525 -70.510  0.00  0.00    +0.000 HD
ATOM     44  H   GLY J   2      13.976  15.570 -71.593  0.00  0.00    +0.000 HD
ATOM     45  H   ILE J   3      17.629  15.443 -74.054  0.00  0.00    +0.000 HD
ATOM     46  H   ARG J   4      18.904  16.921 -70.517  0.00  0.00    +0.000 HD
ATOM     47  H   ARG J   4      15.261  20.391 -72.342  0.00  0.00    +0.000 HD
ATOM     48  H   ARG J   4      13.046  22.254 -69.604  0.00  0.00    +0.000 HD
ATOM     49  H   ARG J   4      14.591  21.675 -69.173  0.00  0.00    +0.000 HD
ATOM     50  H   ARG J   4      13.218  21.165 -72.891  0.00  0.00    +0.000 HD
ATOM     51  H   ARG J   4      12.261  21.960 -71.725  0.00  0.00    +0.000 HD
ATOM     52  H   GLY J   5      22.210  19.579 -71.295  0.00  0.00    +0.000 HD
ATOM     53  H   ILE J   6      23.828  17.806 -71.230  0.00  0.00    +0.000 HD
TER 
