REMARK  Name = /data/user_data/xianyang/t3-aimnet-affinity-balanced/L2/P43405/pocket.pdb
REMARK                            x       y       z     vdW  Elec       q    Type
REMARK                         _______ _______ _______ _____ _____    ______ ____
ATOM      1  N   LEU A   1      -0.380  -3.076   8.896  0.00  0.00    +0.000 N 
ATOM      2  CA  LEU A   1      -0.710  -2.385  10.144  0.00  0.00    +0.000 C 
ATOM      3  C   LEU A   1      -1.231  -0.970   9.906  0.00  0.00    +0.000 C 
ATOM      4  O   LEU A   1      -2.138  -0.511  10.599  0.00  0.00    +0.000 OA
ATOM      5  CB  LEU A   1       0.485  -2.370  11.099  0.00  0.00    +0.000 C 
ATOM      6  CG  LEU A   1       0.992  -3.728  11.589  0.00  0.00    +0.000 C 
ATOM      7  CD1 LEU A   1       2.333  -3.567  12.282  0.00  0.00    +0.000 C 
ATOM      8  CD2 LEU A   1      -0.023  -4.416  12.509  0.00  0.00    +0.000 C 
ATOM      9  N   GLY A   2      -0.653  -0.285   8.926  0.00  0.00    +0.000 N 
ATOM     10  CA  GLY A   2      -1.098   1.045   8.555  0.00  0.00    +0.000 C 
ATOM     11  C   GLY A   2      -0.450   1.540   7.280  0.00  0.00    +0.000 C 
ATOM     12  O   GLY A   2       0.392   0.856   6.695  0.00  0.00    +0.000 OA
ATOM     13  N   SER A   3      -0.848   2.735   6.851  0.00  0.00    +0.000 N 
ATOM     14  CA  SER A   3      -0.295   3.348   5.647  0.00  0.00    +0.000 C 
ATOM     15  C   SER A   3      -0.280   4.869   5.749  0.00  0.00    +0.000 C 
ATOM     16  O   SER A   3      -1.117   5.462   6.429  0.00  0.00    +0.000 OA
ATOM     17  CB  SER A   3      -1.090   2.914   4.413  0.00  0.00    +0.000 C 
ATOM     18  OG  SER A   3      -2.468   3.208   4.571  0.00  0.00    +0.000 OA
ATOM     19  N   GLY A   4       0.684   5.486   5.070  0.00  0.00    +0.000 N 
ATOM     20  CA  GLY A   4       0.772   6.934   4.965  0.00  0.00    +0.000 C 
ATOM     21  C   GLY A   4       1.232   7.351   3.580  0.00  0.00    +0.000 C 
ATOM     22  O   GLY A   4       1.133   6.572   2.624  0.00  0.00    +0.000 OA
ATOM     23  H   LEU A   1      -1.193  -3.071   8.280  0.00  0.00    +0.000 HD
ATOM     24  H   LEU A   1      -0.114  -4.039   9.101  0.00  0.00    +0.000 HD
ATOM     25  H   LEU A   1       0.397  -2.599   8.438  0.00  0.00    +0.000 HD
ATOM     26  H   GLY A   2       0.099  -0.691   8.437  0.00  0.00    +0.000 HD
ATOM     27  H   SER A   3      -1.536   3.220   7.361  0.00  0.00    +0.000 HD
ATOM     28  H   SER A   3      -2.584   4.164   4.686  0.00  0.00    +0.000 HD
ATOM     29  H   GLY A   4       1.367   4.939   4.619  0.00  0.00    +0.000 HD
TER 
REMARK  Name = /data/user_data/xianyang/t3-aimnet-affinity-balanced/L2/P43405/pocket.pdb
REMARK                            x       y       z     vdW  Elec       q    Type
REMARK                         _______ _______ _______ _____ _____    ______ ____
ATOM      1  N   PHE B   1       4.310   7.909   2.831  0.00  0.00    +0.000 N 
ATOM      2  CA  PHE B   1       5.576   7.189   2.670  0.00  0.00    +0.000 C 
ATOM      3  C   PHE B   1       5.421   5.820   2.009  0.00  0.00    +0.000 C 
ATOM      4  O   PHE B   1       6.353   5.316   1.381  0.00  0.00    +0.000 OA
ATOM      5  CB  PHE B   1       6.247   7.007   4.036  0.00  0.00    +0.000 C 
ATOM      6  CG  PHE B   1       5.373   6.318   5.058  0.00  0.00    +0.000 A 
ATOM      7  CD2 PHE B   1       4.614   7.062   5.959  0.00  0.00    +0.000 A 
ATOM      8  CD1 PHE B   1       5.311   4.928   5.122  0.00  0.00    +0.000 A 
ATOM      9  CE2 PHE B   1       3.806   6.433   6.907  0.00  0.00    +0.000 A 
ATOM     10  CE1 PHE B   1       4.501   4.289   6.061  0.00  0.00    +0.000 A 
ATOM     11  CZ  PHE B   1       3.750   5.043   6.955  0.00  0.00    +0.000 A 
ATOM     12  H   PHE B   1       3.868   8.027   1.919  0.00  0.00    +0.000 HD
ATOM     13  H   PHE B   1       4.490   8.825   3.243  0.00  0.00    +0.000 HD
ATOM     14  H   PHE B   1       3.691   7.376   3.442  0.00  0.00    +0.000 HD
TER 
REMARK  Name = /data/user_data/xianyang/t3-aimnet-affinity-balanced/L2/P43405/pocket.pdb
REMARK                            x       y       z     vdW  Elec       q    Type
REMARK                         _______ _______ _______ _____ _____    ______ ____
ATOM      1  N   VAL C   1       3.044   0.257   6.501  0.00  0.00    +0.000 N 
ATOM      2  CA  VAL C   1       3.667  -0.452   7.607  0.00  0.00    +0.000 C 
ATOM      3  C   VAL C   1       3.045  -1.842   7.676  0.00  0.00    +0.000 C 
ATOM      4  O   VAL C   1       1.821  -1.984   7.673  0.00  0.00    +0.000 OA
ATOM      5  CB  VAL C   1       3.507   0.292   8.959  0.00  0.00    +0.000 C 
ATOM      6  CG2 VAL C   1       4.222  -0.459  10.069  0.00  0.00    +0.000 C 
ATOM      7  CG1 VAL C   1       4.047   1.722   8.867  0.00  0.00    +0.000 C 
ATOM      8  H   VAL C   1       3.178  -0.272   5.639  0.00  0.00    +0.000 HD
ATOM      9  H   VAL C   1       3.471   1.178   6.404  0.00  0.00    +0.000 HD
ATOM     10  H   VAL C   1       2.046   0.363   6.684  0.00  0.00    +0.000 HD
TER 
REMARK  Name = /data/user_data/xianyang/t3-aimnet-affinity-balanced/L2/P43405/pocket.pdb
REMARK                            x       y       z     vdW  Elec       q    Type
REMARK                         _______ _______ _______ _____ _____    ______ ____
ATOM      1  N   ALA D   1       7.413  -4.347  13.442  0.00  0.00    +0.000 N 
ATOM      2  CA  ALA D   1       6.648  -3.562  12.488  0.00  0.00    +0.000 C 
ATOM      3  C   ALA D   1       7.632  -2.985  11.475  0.00  0.00    +0.000 C 
ATOM      4  O   ALA D   1       8.699  -2.498  11.846  0.00  0.00    +0.000 OA
ATOM      5  CB  ALA D   1       5.889  -2.457  13.187  0.00  0.00    +0.000 C 
ATOM      6  H   ALA D   1       7.916  -5.085  12.949  0.00  0.00    +0.000 HD
ATOM      7  H   ALA D   1       6.780  -4.764  14.124  0.00  0.00    +0.000 HD
ATOM      8  H   ALA D   1       8.080  -3.743  13.922  0.00  0.00    +0.000 HD
TER 
REMARK  Name = /data/user_data/xianyang/t3-aimnet-affinity-balanced/L2/P43405/pocket.pdb
REMARK                            x       y       z     vdW  Elec       q    Type
REMARK                         _______ _______ _______ _____ _____    ______ ____
ATOM      1  N   LYS E   1       8.278  -0.423   8.249  0.00  0.00    +0.000 N 
ATOM      2  CA  LYS E   1       7.873   0.690   7.397  0.00  0.00    +0.000 C 
ATOM      3  C   LYS E   1       8.447   0.467   6.001  0.00  0.00    +0.000 C 
ATOM      4  O   LYS E   1       9.658   0.363   5.838  0.00  0.00    +0.000 OA
ATOM      5  CB  LYS E   1       8.367   2.013   7.983  0.00  0.00    +0.000 C 
ATOM      6  CG  LYS E   1       7.658   3.238   7.448  0.00  0.00    +0.000 C 
ATOM      7  CD  LYS E   1       8.412   4.501   7.819  0.00  0.00    +0.000 C 
ATOM      8  CE  LYS E   1       7.484   5.692   7.905  0.00  0.00    +0.000 C 
ATOM      9  NZ  LYS E   1       8.234   6.959   8.145  0.00  0.00    +0.000 N 
ATOM     10  H   LYS E   1       7.943  -1.298   7.847  0.00  0.00    +0.000 HD
ATOM     11  H   LYS E   1       7.879  -0.301   9.180  0.00  0.00    +0.000 HD
ATOM     12  H   LYS E   1       9.296  -0.447   8.316  0.00  0.00    +0.000 HD
ATOM     13  H   LYS E   1       8.734   6.895   9.032  0.00  0.00    +0.000 HD
ATOM     14  H   LYS E   1       7.579   7.740   8.179  0.00  0.00    +0.000 HD
ATOM     15  H   LYS E   1       8.901   7.108   7.388  0.00  0.00    +0.000 HD
TER 
REMARK  Name = /data/user_data/xianyang/t3-aimnet-affinity-balanced/L2/P43405/pocket.pdb
REMARK                            x       y       z     vdW  Elec       q    Type
REMARK                         _______ _______ _______ _____ _____    ______ ____
ATOM      1  N   GLU F   1      15.052   9.615   9.343  0.00  0.00    +0.000 N 
ATOM      2  CA  GLU F   1      14.267   8.996  10.413  0.00  0.00    +0.000 C 
ATOM      3  C   GLU F   1      15.056   7.894  11.118  0.00  0.00    +0.000 C 
ATOM      4  O   GLU F   1      15.020   7.787  12.349  0.00  0.00    +0.000 OA
ATOM      5  CB  GLU F   1      12.970   8.423   9.840  0.00  0.00    +0.000 C 
ATOM      6  CG  GLU F   1      11.884   8.129  10.865  0.00  0.00    +0.000 C 
ATOM      7  CD  GLU F   1      10.703   7.378  10.269  0.00  0.00    +0.000 C 
ATOM      8  OE1 GLU F   1      10.750   7.030   9.069  0.00  0.00    +0.000 OA
ATOM      9  OE2 GLU F   1       9.722   7.134  11.000  0.00  0.00    +0.000 OA
ATOM     10  H   GLU F   1      14.498  10.344   8.894  0.00  0.00    +0.000 HD
ATOM     11  H   GLU F   1      15.305   8.907   8.654  0.00  0.00    +0.000 HD
ATOM     12  H   GLU F   1      15.899  10.025   9.736  0.00  0.00    +0.000 HD
TER 
REMARK  Name = /data/user_data/xianyang/t3-aimnet-affinity-balanced/L2/P43405/pocket.pdb
REMARK                            x       y       z     vdW  Elec       q    Type
REMARK                         _______ _______ _______ _____ _____    ______ ____
ATOM      1  N   VAL G   1       9.205   3.738  20.496  0.00  0.00    +0.000 N 
ATOM      2  CA  VAL G   1       9.362   2.604  19.594  0.00  0.00    +0.000 C 
ATOM      3  C   VAL G   1      10.779   2.652  19.021  0.00  0.00    +0.000 C 
ATOM      4  O   VAL G   1      11.131   3.582  18.295  0.00  0.00    +0.000 OA
ATOM      5  CB  VAL G   1       8.295   2.593  18.473  0.00  0.00    +0.000 C 
ATOM      6  CG1 VAL G   1       8.611   1.530  17.421  0.00  0.00    +0.000 C 
ATOM      7  CG2 VAL G   1       6.910   2.347  19.059  0.00  0.00    +0.000 C 
ATOM      8  H   VAL G   1       8.265   3.729  20.893  0.00  0.00    +0.000 HD
ATOM      9  H   VAL G   1       9.348   4.606  19.979  0.00  0.00    +0.000 HD
ATOM     10  H   VAL G   1       9.892   3.673  21.247  0.00  0.00    +0.000 HD
TER 
REMARK  Name = /data/user_data/xianyang/t3-aimnet-affinity-balanced/L2/P43405/pocket.pdb
REMARK                            x       y       z     vdW  Elec       q    Type
REMARK                         _______ _______ _______ _____ _____    ______ ____
ATOM      1  N   LEU H   1      12.233   0.200   7.029  0.00  0.00    +0.000 N 
ATOM      2  CA  LEU H   1      12.630   0.541   8.391  0.00  0.00    +0.000 C 
ATOM      3  C   LEU H   1      11.955  -0.422   9.362  0.00  0.00    +0.000 C 
ATOM      4  O   LEU H   1      10.732  -0.422   9.507  0.00  0.00    +0.000 OA
ATOM      5  CB  LEU H   1      12.274   1.997   8.720  0.00  0.00    +0.000 C 
ATOM      6  CG  LEU H   1      12.622   2.563  10.101  0.00  0.00    +0.000 C 
ATOM      7  CD1 LEU H   1      14.063   3.025  10.154  0.00  0.00    +0.000 C 
ATOM      8  CD2 LEU H   1      11.695   3.719  10.437  0.00  0.00    +0.000 C 
ATOM      9  H   LEU H   1      12.681   0.841   6.374  0.00  0.00    +0.000 HD
ATOM     10  H   LEU H   1      11.220   0.277   6.941  0.00  0.00    +0.000 HD
ATOM     11  H   LEU H   1      12.521  -0.756   6.820  0.00  0.00    +0.000 HD
TER 
REMARK  Name = /data/user_data/xianyang/t3-aimnet-affinity-balanced/L2/P43405/pocket.pdb
REMARK                            x       y       z     vdW  Elec       q    Type
REMARK                         _______ _______ _______ _____ _____    ______ ____
ATOM      1  N   MET I   1      11.138  -1.834  12.979  0.00  0.00    +0.000 N 
ATOM      2  CA  MET I   1      10.963  -1.296  14.335  0.00  0.00    +0.000 C 
ATOM      3  C   MET I   1      10.268  -2.290  15.278  0.00  0.00    +0.000 C 
ATOM      4  O   MET I   1       9.646  -3.244  14.825  0.00  0.00    +0.000 OA
ATOM      5  CB  MET I   1      10.138  -0.009  14.294  0.00  0.00    +0.000 C 
ATOM      6  CG  MET I   1      10.604   1.036  13.286  0.00  0.00    +0.000 C 
ATOM      7  SD  MET I   1       9.245   2.115  12.815  0.00  0.00    +0.000 S 
ATOM      8  CE  MET I   1       8.467   1.160  11.514  0.00  0.00    +0.000 C 
ATOM      9  N   GLU I   2      10.365  -2.040  16.585  0.00  0.00    +0.000 N 
ATOM     10  CA  GLU I   2       9.637  -2.812  17.592  0.00  0.00    +0.000 C 
ATOM     11  C   GLU I   2       8.138  -2.816  17.307  0.00  0.00    +0.000 C 
ATOM     12  O   GLU I   2       7.600  -1.855  16.753  0.00  0.00    +0.000 OA
ATOM     13  CB  GLU I   2       9.853  -2.225  18.983  0.00  0.00    +0.000 C 
ATOM     14  CG  GLU I   2      11.263  -2.333  19.536  0.00  0.00    +0.000 C 
ATOM     15  CD  GLU I   2      11.399  -1.636  20.878  0.00  0.00    +0.000 C 
ATOM     16  OE1 GLU I   2      10.874  -0.508  21.029  0.00  0.00    +0.000 OA
ATOM     17  OE2 GLU I   2      12.028  -2.211  21.789  0.00  0.00    +0.000 OA
ATOM     18  N   MET I   3       7.474  -3.897  17.702  0.00  0.00    +0.000 N 
ATOM     19  CA  MET I   3       6.038  -4.049  17.511  0.00  0.00    +0.000 C 
ATOM     20  C   MET I   3       5.287  -3.683  18.794  0.00  0.00    +0.000 C 
ATOM     21  O   MET I   3       5.660  -4.114  19.880  0.00  0.00    +0.000 OA
ATOM     22  CB  MET I   3       5.725  -5.491  17.083  0.00  0.00    +0.000 C 
ATOM     23  CG  MET I   3       4.251  -5.813  16.926  0.00  0.00    +0.000 C 
ATOM     24  SD  MET I   3       3.624  -5.327  15.343  0.00  0.00    +0.000 S 
ATOM     25  CE  MET I   3       1.861  -5.185  15.692  0.00  0.00    +0.000 C 
ATOM     26  N   ALA I   4       4.252  -2.858  18.660  0.00  0.00    +0.000 N 
ATOM     27  CA  ALA I   4       3.344  -2.553  19.765  0.00  0.00    +0.000 C 
ATOM     28  C   ALA I   4       1.974  -3.087  19.360  0.00  0.00    +0.000 C 
ATOM     29  O   ALA I   4       1.246  -2.435  18.610  0.00  0.00    +0.000 OA
ATOM     30  CB  ALA I   4       3.302  -1.055  20.017  0.00  0.00    +0.000 C 
ATOM     31  N   GLU I   5       1.638  -4.282  19.841  0.00  0.00    +0.000 N 
ATOM     32  CA  GLU I   5       0.519  -5.057  19.281  0.00  0.00    +0.000 C 
ATOM     33  C   GLU I   5      -0.878  -4.454  19.449  0.00  0.00    +0.000 C 
ATOM     34  O   GLU I   5      -1.736  -4.626  18.574  0.00  0.00    +0.000 OA
ATOM     35  CB  GLU I   5       0.527  -6.498  19.802  0.00  0.00    +0.000 C 
ATOM     36  CG  GLU I   5       1.738  -7.306  19.369  0.00  0.00    +0.000 C 
ATOM     37  CD  GLU I   5       1.562  -8.007  18.034  0.00  0.00    +0.000 C 
ATOM     38  OE2 GLU I   5       2.514  -8.696  17.620  0.00  0.00    +0.000 OA
ATOM     39  OE1 GLU I   5       0.492  -7.878  17.394  0.00  0.00    +0.000 OA
ATOM     40  N   LEU I   6      -1.105  -3.752  20.556  0.00  0.00    +0.000 N 
ATOM     41  CA  LEU I   6      -2.434  -3.207  20.852  0.00  0.00    +0.000 C 
ATOM     42  C   LEU I   6      -2.799  -1.965  20.027  0.00  0.00    +0.000 C 
ATOM     43  O   LEU I   6      -3.965  -1.546  20.009  0.00  0.00    +0.000 OA
ATOM     44  CB  LEU I   6      -2.586  -2.934  22.354  0.00  0.00    +0.000 C 
ATOM     45  CG  LEU I   6      -3.213  -4.034  23.217  0.00  0.00    +0.000 C 
ATOM     46  CD1 LEU I   6      -2.446  -5.340  23.118  0.00  0.00    +0.000 C 
ATOM     47  CD2 LEU I   6      -3.281  -3.587  24.657  0.00  0.00    +0.000 C 
ATOM     48  N   GLY I   7      -1.809  -1.383  19.347  0.00  0.00    +0.000 N 
ATOM     49  CA  GLY I   7      -2.060  -0.314  18.396  0.00  0.00    +0.000 C 
ATOM     50  C   GLY I   7      -2.195   1.084  18.973  0.00  0.00    +0.000 C 
ATOM     51  O   GLY I   7      -1.889   1.313  20.147  0.00  0.00    +0.000 OA
ATOM     52  N   PRO I   8      -2.652   2.021  18.143  0.00  0.00    +0.000 N 
ATOM     53  CA  PRO I   8      -2.732   3.438  18.526  0.00  0.00    +0.000 C 
ATOM     54  C   PRO I   8      -3.682   3.688  19.694  0.00  0.00    +0.000 C 
ATOM     55  O   PRO I   8      -4.793   3.140  19.749  0.00  0.00    +0.000 OA
ATOM     56  CB  PRO I   8      -3.256   4.130  17.264  0.00  0.00    +0.000 C 
ATOM     57  CG  PRO I   8      -3.109   3.151  16.166  0.00  0.00    +0.000 C 
ATOM     58  CD  PRO I   8      -3.121   1.791  16.764  0.00  0.00    +0.000 C 
ATOM     59  H   MET I   1      11.602  -1.139  12.395  0.00  0.00    +0.000 HD
ATOM     60  H   MET I   1      10.226  -2.058  12.582  0.00  0.00    +0.000 HD
ATOM     61  H   MET I   1      11.708  -2.679  13.019  0.00  0.00    +0.000 HD
ATOM     62  H   GLU I   2      10.950  -1.307  16.884  0.00  0.00    +0.000 HD
ATOM     63  H   MET I   3       7.972  -4.624  18.141  0.00  0.00    +0.000 HD
ATOM     64  H   ALA I   4       4.091  -2.437  17.785  0.00  0.00    +0.000 HD
ATOM     65  H   GLU I   5       2.152  -4.658  20.592  0.00  0.00    +0.000 HD
ATOM     66  H   LEU I   6      -0.367  -3.595  21.188  0.00  0.00    +0.000 HD
ATOM     67  H   GLY I   7      -0.884  -1.686  19.494  0.00  0.00    +0.000 HD
TER 
REMARK  Name = /data/user_data/xianyang/t3-aimnet-affinity-balanced/L2/P43405/pocket.pdb
REMARK                            x       y       z     vdW  Elec       q    Type
REMARK                         _______ _______ _______ _____ _____    ______ ____
ATOM      1  N   ASN J   1      -5.509   6.276  20.502  0.00  0.00    +0.000 N 
ATOM      2  CA  ASN J   1      -6.813   6.875  20.210  0.00  0.00    +0.000 C 
ATOM      3  C   ASN J   1      -7.851   5.807  19.843  0.00  0.00    +0.000 C 
ATOM      4  O   ASN J   1      -8.973   5.819  20.357  0.00  0.00    +0.000 OA
ATOM      5  CB  ASN J   1      -6.719   7.997  19.158  0.00  0.00    +0.000 C 
ATOM      6  CG  ASN J   1      -6.264   7.504  17.797  0.00  0.00    +0.000 C 
ATOM      7  OD1 ASN J   1      -5.396   6.636  17.686  0.00  0.00    +0.000 OA
ATOM      8  ND2 ASN J   1      -6.850   8.067  16.745  0.00  0.00    +0.000 N 
ATOM      9  H   ASN J   1      -4.843   7.011  20.742  0.00  0.00    +0.000 HD
ATOM     10  H   ASN J   1      -5.176   5.770  19.681  0.00  0.00    +0.000 HD
ATOM     11  H   ASN J   1      -5.599   5.630  21.286  0.00  0.00    +0.000 HD
ATOM     12  H   ASN J   1      -6.598   7.790  15.834  0.00  0.00    +0.000 HD
ATOM     13  H   ASN J   1      -7.536   8.761  16.876  0.00  0.00    +0.000 HD
TER 
REMARK  Name = /data/user_data/xianyang/t3-aimnet-affinity-balanced/L2/P43405/pocket.pdb
REMARK                            x       y       z     vdW  Elec       q    Type
REMARK                         _______ _______ _______ _____ _____    ______ ____
ATOM      1  N   ARG K   1      -2.825   9.293  18.085  0.00  0.00    +0.000 N 
ATOM      2  CA  ARG K   1      -2.722   8.351  16.965  0.00  0.00    +0.000 C 
ATOM      3  C   ARG K   1      -1.308   7.784  16.772  0.00  0.00    +0.000 C 
ATOM      4  O   ARG K   1      -1.141   6.723  16.160  0.00  0.00    +0.000 OA
ATOM      5  CB  ARG K   1      -3.225   8.994  15.667  0.00  0.00    +0.000 C 
ATOM      6  CG  ARG K   1      -2.367  10.135  15.160  0.00  0.00    +0.000 C 
ATOM      7  CD  ARG K   1      -2.829  10.740  13.831  0.00  0.00    +0.000 C 
ATOM      8  NE  ARG K   1      -1.996  11.885  13.489  0.00  0.00    +0.000 N 
ATOM      9  CZ  ARG K   1      -2.213  13.123  13.916  0.00  0.00    +0.000 C 
ATOM     10  NH2 ARG K   1      -3.259  13.400  14.693  0.00  0.00    +0.000 N 
ATOM     11  NH1 ARG K   1      -1.384  14.091  13.565  0.00  0.00    +0.000 N 
ATOM     12  N   ASN K   2      -0.307   8.490  17.304  0.00  0.00    +0.000 N 
ATOM     13  CA  ASN K   2       1.105   8.103  17.164  0.00  0.00    +0.000 C 
ATOM     14  C   ASN K   2       1.738   7.528  18.427  0.00  0.00    +0.000 C 
ATOM     15  O   ASN K   2       2.944   7.244  18.459  0.00  0.00    +0.000 OA
ATOM     16  CB  ASN K   2       1.926   9.281  16.635  0.00  0.00    +0.000 C 
ATOM     17  CG  ASN K   2       1.557   9.634  15.216  0.00  0.00    +0.000 C 
ATOM     18  OD1 ASN K   2       1.237   8.752  14.423  0.00  0.00    +0.000 OA
ATOM     19  ND2 ASN K   2       1.573  10.924  14.893  0.00  0.00    +0.000 N 
ATOM     20  N   VAL K   3       0.913   7.376  19.462  0.00  0.00    +0.000 N 
ATOM     21  CA  VAL K   3       1.274   6.672  20.686  0.00  0.00    +0.000 C 
ATOM     22  C   VAL K   3       0.688   5.266  20.601  0.00  0.00    +0.000 C 
ATOM     23  O   VAL K   3      -0.515   5.094  20.377  0.00  0.00    +0.000 OA
ATOM     24  CB  VAL K   3       0.733   7.396  21.944  0.00  0.00    +0.000 C 
ATOM     25  CG2 VAL K   3       0.812   6.500  23.184  0.00  0.00    +0.000 C 
ATOM     26  CG1 VAL K   3       1.488   8.692  22.172  0.00  0.00    +0.000 C 
ATOM     27  N   LEU K   4       1.549   4.267  20.773  0.00  0.00    +0.000 N 
ATOM     28  CA  LEU K   4       1.172   2.887  20.532  0.00  0.00    +0.000 C 
ATOM     29  C   LEU K   4       1.258   2.088  21.818  0.00  0.00    +0.000 C 
ATOM     30  O   LEU K   4       2.132   2.331  22.650  0.00  0.00    +0.000 OA
ATOM     31  CB  LEU K   4       2.074   2.266  19.463  0.00  0.00    +0.000 C 
ATOM     32  CG  LEU K   4       2.020   2.865  18.051  0.00  0.00    +0.000 C 
ATOM     33  CD1 LEU K   4       3.076   2.216  17.215  0.00  0.00    +0.000 C 
ATOM     34  CD2 LEU K   4       0.650   2.696  17.393  0.00  0.00    +0.000 C 
ATOM     35  H   ARG K   1      -3.785   9.631  18.158  0.00  0.00    +0.000 HD
ATOM     36  H   ARG K   1      -2.198  10.082  17.925  0.00  0.00    +0.000 HD
ATOM     37  H   ARG K   1      -2.564   8.822  18.951  0.00  0.00    +0.000 HD
ATOM     38  H   ARG K   1      -1.221  11.730  12.902  0.00  0.00    +0.000 HD
ATOM     39  H   ARG K   1      -3.879  12.683  14.957  0.00  0.00    +0.000 HD
ATOM     40  H   ARG K   1      -3.412  14.322  15.003  0.00  0.00    +0.000 HD
ATOM     41  H   ARG K   1      -0.609  13.892  12.991  0.00  0.00    +0.000 HD
ATOM     42  H   ARG K   1      -1.541  15.011  13.878  0.00  0.00    +0.000 HD
ATOM     43  H   ASN K   2      -0.524   9.305  17.812  0.00  0.00    +0.000 HD
ATOM     44  H   ASN K   2       1.340  11.205  13.979  0.00  0.00    +0.000 HD
ATOM     45  H   ASN K   2       1.818  11.597  15.568  0.00  0.00    +0.000 HD
ATOM     46  H   VAL K   3       0.009   7.761  19.396  0.00  0.00    +0.000 HD
ATOM     47  H   LEU K   4       2.465   4.469  21.071  0.00  0.00    +0.000 HD
TER 
REMARK  Name = /data/user_data/xianyang/t3-aimnet-affinity-balanced/L2/P43405/pocket.pdb
REMARK                            x       y       z     vdW  Elec       q    Type
REMARK                         _______ _______ _______ _____ _____    ______ ____
ATOM      1  N   SER L   1       5.738   6.781  18.885  0.00  0.00    +0.000 N 
ATOM      2  CA  SER L   1       6.174   6.343  17.567  0.00  0.00    +0.000 C 
ATOM      3  C   SER L   1       6.057   7.451  16.505  0.00  0.00    +0.000 C 
ATOM      4  O   SER L   1       5.776   8.614  16.829  0.00  0.00    +0.000 OA
ATOM      5  CB  SER L   1       5.386   5.106  17.134  0.00  0.00    +0.000 C 
ATOM      6  OG  SER L   1       4.035   5.438  16.879  0.00  0.00    +0.000 OA
ATOM      7  N   ASP L   2       6.267   7.064  15.243  0.00  0.00    +0.000 N 
ATOM      8  CA  ASP L   2       6.227   7.957  14.086  0.00  0.00    +0.000 C 
ATOM      9  C   ASP L   2       7.166   9.158  14.219  0.00  0.00    +0.000 C 
ATOM     10  O   ASP L   2       6.735  10.265  14.550  0.00  0.00    +0.000 OA
ATOM     11  CB  ASP L   2       4.790   8.402  13.769  0.00  0.00    +0.000 C 
ATOM     12  CG  ASP L   2       4.639   8.919  12.349  0.00  0.00    +0.000 C 
ATOM     13  OD1 ASP L   2       5.657   9.040  11.637  0.00  0.00    +0.000 OA
ATOM     14  OD2 ASP L   2       3.539   9.237  11.856  0.00  0.00    +0.000 OA
ATOM     15  N   PHE L   3       8.442   8.929  13.927  0.00  0.00    +0.000 N 
ATOM     16  CA  PHE L   3       9.459   9.970  14.015  0.00  0.00    +0.000 C 
ATOM     17  C   PHE L   3       9.755  10.616  12.656  0.00  0.00    +0.000 C 
ATOM     18  O   PHE L   3      10.835  11.165  12.441  0.00  0.00    +0.000 OA
ATOM     19  CB  PHE L   3      10.726   9.415  14.666  0.00  0.00    +0.000 C 
ATOM     20  CG  PHE L   3      10.582   9.169  16.140  0.00  0.00    +0.000 A 
ATOM     21  CD2 PHE L   3      11.074  10.088  17.059  0.00  0.00    +0.000 A 
ATOM     22  CD1 PHE L   3       9.942   8.024  16.614  0.00  0.00    +0.000 A 
ATOM     23  CE2 PHE L   3      10.943   9.871  18.424  0.00  0.00    +0.000 A 
ATOM     24  CE1 PHE L   3       9.803   7.802  17.986  0.00  0.00    +0.000 A 
ATOM     25  CZ  PHE L   3      10.305   8.732  18.890  0.00  0.00    +0.000 A 
ATOM     26  H   SER L   1       6.270   7.606  19.163  0.00  0.00    +0.000 HD
ATOM     27  H   SER L   1       5.893   6.033  19.561  0.00  0.00    +0.000 HD
ATOM     28  H   SER L   1       4.745   7.011  18.855  0.00  0.00    +0.000 HD
ATOM     29  H   SER L   1       3.992   6.093  16.165  0.00  0.00    +0.000 HD
ATOM     30  H   ASP L   2       6.462   6.113  15.081  0.00  0.00    +0.000 HD
ATOM     31  H   PHE L   3       8.710   8.026  13.642  0.00  0.00    +0.000 HD
TER 
