REMARK  Name = /data/user_data/xianyang/t3-aimnet-affinity-balanced/L4/Q9NY59/pocket.pdb
REMARK                            x       y       z     vdW  Elec       q    Type
REMARK                         _______ _______ _______ _____ _____    ______ ____
ATOM      1  N   TYR A   1      14.526 -18.528 -15.472  0.00  0.00    +0.000 N 
ATOM      2  CA  TYR A   1      13.392 -17.840 -14.858  0.00  0.00    +0.000 C 
ATOM      3  C   TYR A   1      12.784 -16.835 -15.822  0.00  0.00    +0.000 C 
ATOM      4  O   TYR A   1      11.566 -16.782 -16.003  0.00  0.00    +0.000 OA
ATOM      5  CB  TYR A   1      13.852 -17.156 -13.567  0.00  0.00    +0.000 C 
ATOM      6  CG  TYR A   1      12.898 -16.112 -13.039  0.00  0.00    +0.000 A 
ATOM      7  CD2 TYR A   1      11.847 -16.457 -12.202  0.00  0.00    +0.000 A 
ATOM      8  CD1 TYR A   1      13.058 -14.771 -13.367  0.00  0.00    +0.000 A 
ATOM      9  CE2 TYR A   1      10.975 -15.499 -11.711  0.00  0.00    +0.000 A 
ATOM     10  CE1 TYR A   1      12.189 -13.801 -12.880  0.00  0.00    +0.000 A 
ATOM     11  CZ  TYR A   1      11.153 -14.177 -12.052  0.00  0.00    +0.000 A 
ATOM     12  OH  TYR A   1      10.290 -13.221 -11.566  0.00  0.00    +0.000 OA
ATOM     13  H   TYR A   1      14.222 -18.984 -16.332  0.00  0.00    +0.000 HD
ATOM     14  H   TYR A   1      14.889 -19.228 -14.826  0.00  0.00    +0.000 HD
ATOM     15  H   TYR A   1      15.258 -17.851 -15.687  0.00  0.00    +0.000 HD
ATOM     16  H   TYR A   1      10.410 -12.321 -11.797  0.00  0.00    +0.000 HD
TER 
REMARK  Name = /data/user_data/xianyang/t3-aimnet-affinity-balanced/L4/Q9NY59/pocket.pdb
REMARK                            x       y       z     vdW  Elec       q    Type
REMARK                         _______ _______ _______ _____ _____    ______ ____
ATOM      1  N   VAL B   1      11.054 -18.606 -18.846  0.00  0.00    +0.000 N 
ATOM      2  CA  VAL B   1       9.774 -19.176 -18.461  0.00  0.00    +0.000 C 
ATOM      3  C   VAL B   1       8.737 -18.070 -18.326  0.00  0.00    +0.000 C 
ATOM      4  O   VAL B   1       7.591 -18.212 -18.766  0.00  0.00    +0.000 OA
ATOM      5  CB  VAL B   1       9.909 -19.978 -17.153  0.00  0.00    +0.000 C 
ATOM      6  CG2 VAL B   1       8.534 -20.330 -16.603  0.00  0.00    +0.000 C 
ATOM      7  CG1 VAL B   1      10.731 -21.233 -17.396  0.00  0.00    +0.000 C 
ATOM      8  H   VAL B   1      10.945 -18.080 -19.713  0.00  0.00    +0.000 HD
ATOM      9  H   VAL B   1      11.731 -19.355 -18.986  0.00  0.00    +0.000 HD
ATOM     10  H   VAL B   1      11.384 -17.983 -18.109  0.00  0.00    +0.000 HD
TER 
REMARK  Name = /data/user_data/xianyang/t3-aimnet-affinity-balanced/L4/Q9NY59/pocket.pdb
REMARK                            x       y       z     vdW  Elec       q    Type
REMARK                         _______ _______ _______ _____ _____    ______ ____
ATOM      1  N   LEU C   1       4.160  -8.763  -9.578  0.00  0.00    +0.000 N 
ATOM      2  CA  LEU C   1       4.455 -10.172  -9.756  0.00  0.00    +0.000 C 
ATOM      3  C   LEU C   1       5.381 -10.346 -10.952  0.00  0.00    +0.000 C 
ATOM      4  O   LEU C   1       5.626  -9.399 -11.707  0.00  0.00    +0.000 OA
ATOM      5  CB  LEU C   1       3.155 -10.947  -9.984  0.00  0.00    +0.000 C 
ATOM      6  CG  LEU C   1       2.141 -10.989  -8.846  0.00  0.00    +0.000 C 
ATOM      7  CD1 LEU C   1       0.745 -11.199  -9.398  0.00  0.00    +0.000 C 
ATOM      8  CD2 LEU C   1       2.505 -12.092  -7.875  0.00  0.00    +0.000 C 
ATOM      9  N   PRO C   2       5.921 -11.538 -11.122  0.00  0.00    +0.000 N 
ATOM     10  CA  PRO C   2       6.524 -11.829 -12.421  0.00  0.00    +0.000 C 
ATOM     11  C   PRO C   2       5.521 -11.537 -13.530  0.00  0.00    +0.000 C 
ATOM     12  O   PRO C   2       4.312 -11.694 -13.344  0.00  0.00    +0.000 OA
ATOM     13  CB  PRO C   2       6.857 -13.323 -12.318  0.00  0.00    +0.000 C 
ATOM     14  CG  PRO C   2       7.048 -13.557 -10.862  0.00  0.00    +0.000 C 
ATOM     15  CD  PRO C   2       6.061 -12.658 -10.170  0.00  0.00    +0.000 C 
ATOM     16  H   LEU C   1       5.029  -8.250  -9.426  0.00  0.00    +0.000 HD
ATOM     17  H   LEU C   1       3.549  -8.643  -8.770  0.00  0.00    +0.000 HD
ATOM     18  H   LEU C   1       3.695  -8.405 -10.412  0.00  0.00    +0.000 HD
TER 
REMARK  Name = /data/user_data/xianyang/t3-aimnet-affinity-balanced/L4/Q9NY59/pocket.pdb
REMARK                            x       y       z     vdW  Elec       q    Type
REMARK                         _______ _______ _______ _____ _____    ______ ____
ATOM      1  N   SER D   1       4.391 -12.807 -16.222  0.00  0.00    +0.000 N 
ATOM      2  CA  SER D   1       3.391 -13.787 -16.615  0.00  0.00    +0.000 C 
ATOM      3  C   SER D   1       2.281 -13.903 -15.576  0.00  0.00    +0.000 C 
ATOM      4  O   SER D   1       1.113 -14.086 -15.931  0.00  0.00    +0.000 OA
ATOM      5  CB  SER D   1       4.053 -15.147 -16.844  0.00  0.00    +0.000 C 
ATOM      6  OG  SER D   1       4.683 -15.611 -15.668  0.00  0.00    +0.000 OA
ATOM      7  N   LEU D   2       2.609 -13.800 -14.308  0.00  0.00    +0.000 N 
ATOM      8  CA  LEU D   2       1.598 -13.868 -13.265  0.00  0.00    +0.000 C 
ATOM      9  C   LEU D   2       0.803 -12.577 -13.166  0.00  0.00    +0.000 C 
ATOM     10  O   LEU D   2      -0.389 -12.602 -12.856  0.00  0.00    +0.000 OA
ATOM     11  CB  LEU D   2       2.246 -14.200 -11.920  0.00  0.00    +0.000 C 
ATOM     12  CG  LEU D   2       2.884 -15.581 -11.826  0.00  0.00    +0.000 C 
ATOM     13  CD2 LEU D   2       3.574 -15.762 -10.481  0.00  0.00    +0.000 C 
ATOM     14  CD1 LEU D   2       1.838 -16.666 -12.058  0.00  0.00    +0.000 C 
ATOM     15  H   SER D   1       5.116 -12.755 -16.938  0.00  0.00    +0.000 HD
ATOM     16  H   SER D   1       4.809 -13.085 -15.334  0.00  0.00    +0.000 HD
ATOM     17  H   SER D   1       3.950 -11.893 -16.119  0.00  0.00    +0.000 HD
ATOM     18  H   SER D   1       5.372 -14.983 -15.401  0.00  0.00    +0.000 HD
ATOM     19  H   LEU D   2       3.554 -13.675 -14.060  0.00  0.00    +0.000 HD
TER 
REMARK  Name = /data/user_data/xianyang/t3-aimnet-affinity-balanced/L4/Q9NY59/pocket.pdb
REMARK                            x       y       z     vdW  Elec       q    Type
REMARK                         _______ _______ _______ _____ _____    ______ ____
ATOM      1  N   PHE E   1       6.556  -8.925  -5.373  0.00  0.00    +0.000 N 
ATOM      2  CA  PHE E   1       7.178 -10.240  -5.425  0.00  0.00    +0.000 C 
ATOM      3  C   PHE E   1       8.418 -10.268  -6.303  0.00  0.00    +0.000 C 
ATOM      4  O   PHE E   1       9.412 -10.912  -5.955  0.00  0.00    +0.000 OA
ATOM      5  CB  PHE E   1       6.182 -11.288  -5.925  0.00  0.00    +0.000 C 
ATOM      6  CG  PHE E   1       5.049 -11.558  -4.982  0.00  0.00    +0.000 A 
ATOM      7  CD2 PHE E   1       5.275 -12.199  -3.779  0.00  0.00    +0.000 A 
ATOM      8  CD1 PHE E   1       3.757 -11.188  -5.310  0.00  0.00    +0.000 A 
ATOM      9  CE2 PHE E   1       4.232 -12.468  -2.912  0.00  0.00    +0.000 A 
ATOM     10  CE1 PHE E   1       2.709 -11.454  -4.447  0.00  0.00    +0.000 A 
ATOM     11  CZ  PHE E   1       2.948 -12.093  -3.246  0.00  0.00    +0.000 A 
ATOM     12  H   PHE E   1       7.234  -8.241  -5.038  0.00  0.00    +0.000 HD
ATOM     13  H   PHE E   1       5.758  -8.951  -4.738  0.00  0.00    +0.000 HD
ATOM     14  H   PHE E   1       6.240  -8.661  -6.306  0.00  0.00    +0.000 HD
TER 
REMARK  Name = /data/user_data/xianyang/t3-aimnet-affinity-balanced/L4/Q9NY59/pocket.pdb
REMARK                            x       y       z     vdW  Elec       q    Type
REMARK                         _______ _______ _______ _____ _____    ______ ____
ATOM      1  N   CYS F   1       9.094 -20.021  -3.330  0.00  0.00    +0.000 N 
ATOM      2  CA  CYS F   1       9.880 -19.427  -4.396  0.00  0.00    +0.000 C 
ATOM      3  C   CYS F   1       9.623 -17.938  -4.552  0.00  0.00    +0.000 C 
ATOM      4  O   CYS F   1      10.276 -17.294  -5.386  0.00  0.00    +0.000 OA
ATOM      5  CB  CYS F   1       9.603 -20.145  -5.720  0.00  0.00    +0.000 C 
ATOM      6  SG  CYS F   1       7.864 -20.156  -6.192  0.00  0.00    +0.000 S 
ATOM      7  N   LEU F   2       8.704 -17.391  -3.778  0.00  0.00    +0.000 N 
ATOM      8  CA  LEU F   2       8.428 -15.967  -3.774  0.00  0.00    +0.000 C 
ATOM      9  C   LEU F   2       8.447 -15.462  -2.343  0.00  0.00    +0.000 C 
ATOM     10  O   LEU F   2       8.070 -16.175  -1.412  0.00  0.00    +0.000 OA
ATOM     11  CB  LEU F   2       7.075 -15.649  -4.415  0.00  0.00    +0.000 C 
ATOM     12  CG  LEU F   2       6.913 -15.912  -5.906  0.00  0.00    +0.000 C 
ATOM     13  CD2 LEU F   2       5.478 -15.639  -6.334  0.00  0.00    +0.000 C 
ATOM     14  CD1 LEU F   2       7.883 -15.052  -6.703  0.00  0.00    +0.000 C 
ATOM     15  H   CYS F   1       9.303 -21.017  -3.268  0.00  0.00    +0.000 HD
ATOM     16  H   CYS F   1       8.102 -19.894  -3.528  0.00  0.00    +0.000 HD
ATOM     17  H   CYS F   1       9.325 -19.569  -2.445  0.00  0.00    +0.000 HD
ATOM     18  H   CYS F   1       7.435 -18.878  -6.374  0.00  0.00    +0.000 HD
ATOM     19  H   LEU F   2       8.184 -17.974  -3.179  0.00  0.00    +0.000 HD
TER 
REMARK  Name = /data/user_data/xianyang/t3-aimnet-affinity-balanced/L4/Q9NY59/pocket.pdb
REMARK                            x       y       z     vdW  Elec       q    Type
REMARK                         _______ _______ _______ _____ _____    ______ ____
ATOM      1  N   ASP G   1      -1.847 -22.246  -4.760  0.00  0.00    +0.000 N 
ATOM      2  CA  ASP G   1      -0.750 -21.472  -5.314  0.00  0.00    +0.000 C 
ATOM      3  C   ASP G   1      -0.202 -20.440  -4.341  0.00  0.00    +0.000 C 
ATOM      4  O   ASP G   1       0.965 -20.050  -4.449  0.00  0.00    +0.000 OA
ATOM      5  CB  ASP G   1      -1.194 -20.779  -6.604  0.00  0.00    +0.000 C 
ATOM      6  CG  ASP G   1      -1.490 -21.763  -7.718  0.00  0.00    +0.000 C 
ATOM      7  OD2 ASP G   1      -0.977 -22.898  -7.671  0.00  0.00    +0.000 OA
ATOM      8  OD1 ASP G   1      -2.234 -21.389  -8.649  0.00  0.00    +0.000 OA
ATOM      9  N   ASP G   2      -1.004 -19.973  -3.405  0.00  0.00    +0.000 N 
ATOM     10  CA  ASP G   2      -0.521 -19.007  -2.431  0.00  0.00    +0.000 C 
ATOM     11  C   ASP G   2       0.552 -19.595  -1.527  0.00  0.00    +0.000 C 
ATOM     12  O   ASP G   2       1.297 -18.842  -0.897  0.00  0.00    +0.000 OA
ATOM     13  CB  ASP G   2      -1.677 -18.469  -1.589  0.00  0.00    +0.000 C 
ATOM     14  CG  ASP G   2      -2.222 -17.170  -2.140  0.00  0.00    +0.000 C 
ATOM     15  OD1 ASP G   2      -2.072 -16.921  -3.355  0.00  0.00    +0.000 OA
ATOM     16  OD2 ASP G   2      -2.800 -16.382  -1.360  0.00  0.00    +0.000 OA
ATOM     17  N   ALA G   3       0.637 -20.915  -1.442  0.00  0.00    +0.000 N 
ATOM     18  CA  ALA G   3       1.673 -21.532  -0.634  0.00  0.00    +0.000 C 
ATOM     19  C   ALA G   3       3.063 -21.293  -1.203  0.00  0.00    +0.000 C 
ATOM     20  O   ALA G   3       4.051 -21.426  -0.475  0.00  0.00    +0.000 OA
ATOM     21  CB  ALA G   3       1.419 -23.031  -0.495  0.00  0.00    +0.000 C 
ATOM     22  N   LEU G   4       3.153 -20.955  -2.482  0.00  0.00    +0.000 N 
ATOM     23  CA  LEU G   4       4.443 -20.672  -3.084  0.00  0.00    +0.000 C 
ATOM     24  C   LEU G   4       4.996 -19.321  -2.669  0.00  0.00    +0.000 C 
ATOM     25  O   LEU G   4       6.190 -19.068  -2.848  0.00  0.00    +0.000 OA
ATOM     26  CB  LEU G   4       4.345 -20.743  -4.605  0.00  0.00    +0.000 C 
ATOM     27  CG  LEU G   4       4.005 -22.107  -5.197  0.00  0.00    +0.000 C 
ATOM     28  CD1 LEU G   4       3.806 -22.008  -6.700  0.00  0.00    +0.000 C 
ATOM     29  CD2 LEU G   4       5.084 -23.114  -4.848  0.00  0.00    +0.000 C 
ATOM     30  N   ALA G   5       4.166 -18.444  -2.144  0.00  0.00    +0.000 N 
ATOM     31  CA  ALA G   5       4.589 -17.134  -1.685  0.00  0.00    +0.000 C 
ATOM     32  C   ALA G   5       4.673 -17.129  -0.171  0.00  0.00    +0.000 C 
ATOM     33  O   ALA G   5       3.865 -17.751   0.518  0.00  0.00    +0.000 OA
ATOM     34  CB  ALA G   5       3.630 -16.045  -2.161  0.00  0.00    +0.000 C 
ATOM     35  H   ASP G   1      -2.173 -22.919  -5.454  0.00  0.00    +0.000 HD
ATOM     36  H   ASP G   1      -2.612 -21.620  -4.508  0.00  0.00    +0.000 HD
ATOM     37  H   ASP G   1      -1.527 -22.743  -3.929  0.00  0.00    +0.000 HD
ATOM     38  H   ASP G   2      -1.938 -20.281  -3.365  0.00  0.00    +0.000 HD
ATOM     39  H   ALA G   3      -0.006 -21.480  -1.929  0.00  0.00    +0.000 HD
ATOM     40  H   LEU G   4       2.337 -20.895  -3.029  0.00  0.00    +0.000 HD
ATOM     41  H   ALA G   5       3.216 -18.688  -2.059  0.00  0.00    +0.000 HD
TER 
REMARK  Name = /data/user_data/xianyang/t3-aimnet-affinity-balanced/L4/Q9NY59/pocket.pdb
REMARK                            x       y       z     vdW  Elec       q    Type
REMARK                         _______ _______ _______ _____ _____    ______ ____
ATOM      1  N   LYS H   1       3.686 -15.333   2.179  0.00  0.00    +0.000 N 
ATOM      2  CA  LYS H   1       2.778 -14.334   2.719  0.00  0.00    +0.000 C 
ATOM      3  C   LYS H   1       2.790 -14.383   4.239  0.00  0.00    +0.000 C 
ATOM      4  O   LYS H   1       2.843 -15.452   4.843  0.00  0.00    +0.000 OA
ATOM      5  CB  LYS H   1       1.360 -14.546   2.195  0.00  0.00    +0.000 C 
ATOM      6  CG  LYS H   1       1.185 -14.201   0.728  0.00  0.00    +0.000 C 
ATOM      7  CD  LYS H   1      -0.282 -14.238   0.333  0.00  0.00    +0.000 C 
ATOM      8  CE  LYS H   1      -0.489 -13.804  -1.105  0.00  0.00    +0.000 C 
ATOM      9  NZ  LYS H   1      -1.932 -13.792  -1.473  0.00  0.00    +0.000 N 
ATOM     10  H   LYS H   1       3.670 -15.291   1.160  0.00  0.00    +0.000 HD
ATOM     11  H   LYS H   1       3.393 -16.260   2.486  0.00  0.00    +0.000 HD
ATOM     12  H   LYS H   1       4.632 -15.148   2.512  0.00  0.00    +0.000 HD
ATOM     13  H   LYS H   1      -2.429 -13.130  -0.878  0.00  0.00    +0.000 HD
ATOM     14  H   LYS H   1      -2.323 -14.725  -1.345  0.00  0.00    +0.000 HD
ATOM     15  H   LYS H   1      -2.032 -13.513  -2.449  0.00  0.00    +0.000 HD
TER 
