REMARK  Name = /data/user_data/xianyang/t3-aimnet-affinity-balanced/L1/Q86WV6/pocket.pdb
REMARK                            x       y       z     vdW  Elec       q    Type
REMARK                         _______ _______ _______ _____ _____    ______ ____
ATOM      1  N   GLY A   1      14.511  17.923  26.837  0.00  0.00    +0.000 N 
ATOM      2  CA  GLY A   1      14.603  17.939  28.292  0.00  0.00    +0.000 C 
ATOM      3  C   GLY A   1      14.189  16.621  28.929  0.00  0.00    +0.000 C 
ATOM      4  O   GLY A   1      14.858  16.150  29.861  0.00  0.00    +0.000 OA
ATOM      5  N   LEU A   2      13.073  16.022  28.446  0.00  0.00    +0.000 N 
ATOM      6  CA  LEU A   2      12.605  14.735  28.976  0.00  0.00    +0.000 C 
ATOM      7  C   LEU A   2      13.622  13.606  28.806  0.00  0.00    +0.000 C 
ATOM      8  O   LEU A   2      13.775  12.801  29.726  0.00  0.00    +0.000 OA
ATOM      9  CB  LEU A   2      11.251  14.312  28.373  0.00  0.00    +0.000 C 
ATOM     10  CG  LEU A   2      10.053  15.258  28.627  0.00  0.00    +0.000 C 
ATOM     11  CD1 LEU A   2       8.774  14.662  28.064  0.00  0.00    +0.000 C 
ATOM     12  CD2 LEU A   2       9.899  15.586  30.091  0.00  0.00    +0.000 C 
ATOM     13  N   ALA A   3      14.262  13.523  27.616  0.00  0.00    +0.000 N 
ATOM     14  CA  ALA A   3      15.261  12.485  27.305  0.00  0.00    +0.000 C 
ATOM     15  C   ALA A   3      16.518  12.679  28.170  0.00  0.00    +0.000 C 
ATOM     16  O   ALA A   3      17.027  11.707  28.715  0.00  0.00    +0.000 OA
ATOM     17  CB  ALA A   3      15.613  12.507  25.822  0.00  0.00    +0.000 C 
ATOM     18  N   TRP A   4      16.991  13.927  28.323  0.00  0.00    +0.000 N 
ATOM     19  CA  TRP A   4      18.148  14.224  29.199  0.00  0.00    +0.000 C 
ATOM     20  C   TRP A   4      17.826  13.880  30.657  0.00  0.00    +0.000 C 
ATOM     21  O   TRP A   4      18.652  13.308  31.359  0.00  0.00    +0.000 OA
ATOM     22  CB  TRP A   4      18.568  15.704  29.080  0.00  0.00    +0.000 C 
ATOM     23  CG  TRP A   4      19.560  15.884  27.976  0.00  0.00    +0.000 C 
ATOM     24  CD1 TRP A   4      19.293  16.153  26.662  0.00  0.00    +0.000 C 
ATOM     25  CD2 TRP A   4      20.967  15.600  28.051  0.00  0.00    +0.000 C 
ATOM     26  NE1 TRP A   4      20.458  16.122  25.926  0.00  0.00    +0.000 NA
ATOM     27  CE2 TRP A   4      21.500  15.768  26.751  0.00  0.00    +0.000 C 
ATOM     28  CE3 TRP A   4      21.827  15.207  29.095  0.00  0.00    +0.000 C 
ATOM     29  CZ2 TRP A   4      22.868  15.628  26.478  0.00  0.00    +0.000 C 
ATOM     30  CZ3 TRP A   4      23.177  15.007  28.812  0.00  0.00    +0.000 C 
ATOM     31  CH2 TRP A   4      23.680  15.196  27.513  0.00  0.00    +0.000 C 
ATOM     32  N   SER A   5      16.596  14.157  31.084  0.00  0.00    +0.000 N 
ATOM     33  CA  SER A   5      16.208  13.848  32.433  0.00  0.00    +0.000 C 
ATOM     34  C   SER A   5      16.018  12.343  32.670  0.00  0.00    +0.000 C 
ATOM     35  O   SER A   5      16.322  11.852  33.755  0.00  0.00    +0.000 OA
ATOM     36  CB  SER A   5      14.966  14.638  32.808  0.00  0.00    +0.000 C 
ATOM     37  OG  SER A   5      14.844  14.724  34.216  0.00  0.00    +0.000 OA
ATOM     38  N   TYR A   6      15.501  11.631  31.671  0.00  0.00    +0.000 N 
ATOM     39  CA  TYR A   6      15.312  10.176  31.749  0.00  0.00    +0.000 C 
ATOM     40  C   TYR A   6      16.699   9.516  31.890  0.00  0.00    +0.000 C 
ATOM     41  O   TYR A   6      16.883   8.572  32.664  0.00  0.00    +0.000 OA
ATOM     42  CB  TYR A   6      14.569   9.674  30.505  0.00  0.00    +0.000 C 
ATOM     43  CG  TYR A   6      14.241   8.192  30.533  0.00  0.00    +0.000 A 
ATOM     44  CD2 TYR A   6      13.424   7.651  31.533  0.00  0.00    +0.000 A 
ATOM     45  CD1 TYR A   6      14.665   7.348  29.511  0.00  0.00    +0.000 A 
ATOM     46  CE2 TYR A   6      13.075   6.296  31.530  0.00  0.00    +0.000 A 
ATOM     47  CE1 TYR A   6      14.293   5.999  29.480  0.00  0.00    +0.000 A 
ATOM     48  CZ  TYR A   6      13.513   5.474  30.499  0.00  0.00    +0.000 A 
ATOM     49  OH  TYR A   6      13.190   4.133  30.476  0.00  0.00    +0.000 OA
ATOM     50  N   TYR A   7      17.679  10.068  31.196  0.00  0.00    +0.000 N 
ATOM     51  CA  TYR A   7      19.036   9.522  31.305  0.00  0.00    +0.000 C 
ATOM     52  C   TYR A   7      19.699   9.925  32.650  0.00  0.00    +0.000 C 
ATOM     53  O   TYR A   7      20.142   9.042  33.385  0.00  0.00    +0.000 OA
ATOM     54  CB  TYR A   7      19.899   9.904  30.093  0.00  0.00    +0.000 C 
ATOM     55  CG  TYR A   7      21.361   9.567  30.329  0.00  0.00    +0.000 A 
ATOM     56  CD1 TYR A   7      21.829   8.265  30.183  0.00  0.00    +0.000 A 
ATOM     57  CD2 TYR A   7      22.257  10.536  30.767  0.00  0.00    +0.000 A 
ATOM     58  CE1 TYR A   7      23.165   7.941  30.441  0.00  0.00    +0.000 A 
ATOM     59  CE2 TYR A   7      23.590  10.222  31.043  0.00  0.00    +0.000 A 
ATOM     60  CZ  TYR A   7      24.038   8.923  30.889  0.00  0.00    +0.000 A 
ATOM     61  OH  TYR A   7      25.362   8.628  31.153  0.00  0.00    +0.000 OA
ATOM     62  N   ILE A   8      19.783  11.245  32.957  0.00  0.00    +0.000 N 
ATOM     63  CA  ILE A   8      20.423  11.744  34.191  0.00  0.00    +0.000 C 
ATOM     64  C   ILE A   8      19.758  11.211  35.470  0.00  0.00    +0.000 C 
ATOM     65  O   ILE A   8      20.448  10.787  36.412  0.00  0.00    +0.000 OA
ATOM     66  CB  ILE A   8      20.520  13.317  34.205  0.00  0.00    +0.000 C 
ATOM     67  CG1 ILE A   8      21.419  13.871  33.054  0.00  0.00    +0.000 C 
ATOM     68  CG2 ILE A   8      20.953  13.884  35.589  0.00  0.00    +0.000 C 
ATOM     69  CD1 ILE A   8      22.991  13.425  33.072  0.00  0.00    +0.000 C 
ATOM     70  N   GLY A   9      18.429  11.254  35.485  0.00  0.00    +0.000 N 
ATOM     71  CA  GLY A   9      17.630  10.900  36.642  0.00  0.00    +0.000 C 
ATOM     72  C   GLY A   9      17.276   9.443  36.824  0.00  0.00    +0.000 C 
ATOM     73  O   GLY A   9      16.756   9.084  37.880  0.00  0.00    +0.000 OA
ATOM     74  N   TYR A  10      17.553   8.599  35.831  0.00  0.00    +0.000 N 
ATOM     75  CA  TYR A  10      17.186   7.182  35.928  0.00  0.00    +0.000 C 
ATOM     76  C   TYR A  10      18.195   6.218  35.297  0.00  0.00    +0.000 C 
ATOM     77  O   TYR A  10      18.816   5.438  36.037  0.00  0.00    +0.000 OA
ATOM     78  CB  TYR A  10      15.757   6.963  35.343  0.00  0.00    +0.000 C 
ATOM     79  CG  TYR A  10      15.278   5.523  35.400  0.00  0.00    +0.000 A 
ATOM     80  CD2 TYR A  10      15.184   4.846  36.615  0.00  0.00    +0.000 A 
ATOM     81  CD1 TYR A  10      14.911   4.843  34.243  0.00  0.00    +0.000 A 
ATOM     82  CE2 TYR A  10      14.709   3.534  36.678  0.00  0.00    +0.000 A 
ATOM     83  CE1 TYR A  10      14.415   3.536  34.296  0.00  0.00    +0.000 A 
ATOM     84  CZ  TYR A  10      14.337   2.881  35.515  0.00  0.00    +0.000 A 
ATOM     85  OH  TYR A  10      13.868   1.591  35.577  0.00  0.00    +0.000 OA
ATOM     86  H   GLY A   1      14.800  18.829  26.468  0.00  0.00    +0.000 HD
ATOM     87  H   GLY A   1      13.548  17.734  26.559  0.00  0.00    +0.000 HD
ATOM     88  H   GLY A   1      15.121  17.195  26.466  0.00  0.00    +0.000 HD
ATOM     89  H   LEU A   2      12.565  16.459  27.725  0.00  0.00    +0.000 HD
ATOM     90  H   ALA A   3      14.049  14.190  26.923  0.00  0.00    +0.000 HD
ATOM     91  H   TRP A   4      16.556  14.666  27.839  0.00  0.00    +0.000 HD
ATOM     92  H   SER A   5      15.948  14.576  30.472  0.00  0.00    +0.000 HD
ATOM     93  H   SER A   5      14.770  13.832  34.589  0.00  0.00    +0.000 HD
ATOM     94  H   TYR A   6      15.234  12.098  30.846  0.00  0.00    +0.000 HD
ATOM     95  H   TYR A   6      13.492   3.590  29.774  0.00  0.00    +0.000 HD
ATOM     96  H   TYR A   7      17.500  10.839  30.611  0.00  0.00    +0.000 HD
ATOM     97  H   TYR A   7      25.676   7.751  31.052  0.00  0.00    +0.000 HD
ATOM     98  H   ILE A   8      19.400  11.899  32.329  0.00  0.00    +0.000 HD
ATOM     99  H   GLY A   9      17.963  11.542  34.667  0.00  0.00    +0.000 HD
ATOM    100  H   TYR A  10      18.009   8.930  35.024  0.00  0.00    +0.000 HD
ATOM    101  H   TYR A  10      13.615   1.146  34.792  0.00  0.00    +0.000 HD
TER 
REMARK  Name = /data/user_data/xianyang/t3-aimnet-affinity-balanced/L1/Q86WV6/pocket.pdb
REMARK                            x       y       z     vdW  Elec       q    Type
REMARK                         _______ _______ _______ _____ _____    ______ ____
ATOM      1  N   LEU B   1      21.755   5.899  36.565  0.00  0.00    +0.000 N 
ATOM      2  CA  LEU B   1      21.789   5.339  37.908  0.00  0.00    +0.000 C 
ATOM      3  C   LEU B   1      21.515   3.825  37.988  0.00  0.00    +0.000 C 
ATOM      4  O   LEU B   1      22.017   3.170  38.906  0.00  0.00    +0.000 OA
ATOM      5  CB  LEU B   1      20.836   6.129  38.828  0.00  0.00    +0.000 C 
ATOM      6  CG  LEU B   1      21.164   7.647  38.939  0.00  0.00    +0.000 C 
ATOM      7  CD1 LEU B   1      19.978   8.431  39.437  0.00  0.00    +0.000 C 
ATOM      8  CD2 LEU B   1      22.426   7.895  39.816  0.00  0.00    +0.000 C 
ATOM      9  H   LEU B   1      22.387   5.373  35.961  0.00  0.00    +0.000 HD
ATOM     10  H   LEU B   1      22.049   6.875  36.596  0.00  0.00    +0.000 HD
ATOM     11  H   LEU B   1      20.806   5.841  36.196  0.00  0.00    +0.000 HD
TER 
REMARK  Name = /data/user_data/xianyang/t3-aimnet-affinity-balanced/L1/Q86WV6/pocket.pdb
REMARK                            x       y       z     vdW  Elec       q    Type
REMARK                         _______ _______ _______ _____ _____    ______ ____
ATOM      1  N   ARG C   1      19.126   8.559  47.387  0.00  0.00    +0.000 N 
ATOM      2  CA  ARG C   1      18.913   9.445  46.257  0.00  0.00    +0.000 C 
ATOM      3  C   ARG C   1      18.129  10.667  46.664  0.00  0.00    +0.000 C 
ATOM      4  O   ARG C   1      16.953  10.561  47.007  0.00  0.00    +0.000 OA
ATOM      5  CB  ARG C   1      18.206   8.659  45.102  0.00  0.00    +0.000 C 
ATOM      6  CG  ARG C   1      17.795   9.492  43.886  0.00  0.00    +0.000 C 
ATOM      7  CD  ARG C   1      18.947   9.775  42.963  0.00  0.00    +0.000 C 
ATOM      8  NE  ARG C   1      18.516  10.605  41.839  0.00  0.00    +0.000 N 
ATOM      9  CZ  ARG C   1      19.268  11.535  41.270  0.00  0.00    +0.000 C 
ATOM     10  NH2 ARG C   1      20.489  11.771  41.718  0.00  0.00    +0.000 N 
ATOM     11  NH1 ARG C   1      18.806  12.232  40.240  0.00  0.00    +0.000 N 
ATOM     12  H   ARG C   1      19.657   7.743  47.084  0.00  0.00    +0.000 HD
ATOM     13  H   ARG C   1      18.225   8.259  47.758  0.00  0.00    +0.000 HD
ATOM     14  H   ARG C   1      19.646   9.053  48.113  0.00  0.00    +0.000 HD
ATOM     15  H   ARG C   1      17.609  10.464  41.483  0.00  0.00    +0.000 HD
ATOM     16  H   ARG C   1      21.044  12.463  41.292  0.00  0.00    +0.000 HD
ATOM     17  H   ARG C   1      20.843  11.255  42.478  0.00  0.00    +0.000 HD
ATOM     18  H   ARG C   1      19.369  12.922  39.821  0.00  0.00    +0.000 HD
ATOM     19  H   ARG C   1      17.900  12.059  39.895  0.00  0.00    +0.000 HD
TER 
REMARK  Name = /data/user_data/xianyang/t3-aimnet-affinity-balanced/L1/Q86WV6/pocket.pdb
REMARK                            x       y       z     vdW  Elec       q    Type
REMARK                         _______ _______ _______ _____ _____    ______ ____
ATOM      1  N   ILE D   1      16.135  10.634  49.716  0.00  0.00    +0.000 N 
ATOM      2  CA  ILE D   1      15.342   9.420  49.858  0.00  0.00    +0.000 C 
ATOM      3  C   ILE D   1      16.364   8.325  50.222  0.00  0.00    +0.000 C 
ATOM      4  O   ILE D   1      17.185   7.947  49.381  0.00  0.00    +0.000 OA
ATOM      5  CB  ILE D   1      14.523   9.041  48.575  0.00  0.00    +0.000 C 
ATOM      6  CG1 ILE D   1      13.532  10.161  48.146  0.00  0.00    +0.000 C 
ATOM      7  CG2 ILE D   1      13.816   7.693  48.777  0.00  0.00    +0.000 C 
ATOM      8  CD1 ILE D   1      12.992  10.046  46.744  0.00  0.00    +0.000 C 
ATOM      9  H   ILE D   1      15.523  11.413  49.473  0.00  0.00    +0.000 HD
ATOM     10  H   ILE D   1      16.828  10.503  48.979  0.00  0.00    +0.000 HD
ATOM     11  H   ILE D   1      16.609  10.836  50.597  0.00  0.00    +0.000 HD
TER 
REMARK  Name = /data/user_data/xianyang/t3-aimnet-affinity-balanced/L1/Q86WV6/pocket.pdb
REMARK                            x       y       z     vdW  Elec       q    Type
REMARK                         _______ _______ _______ _____ _____    ______ ____
ATOM      1  N   ARG E   1      16.327   4.517  48.096  0.00  0.00    +0.000 N 
ATOM      2  CA  ARG E   1      15.390   4.704  46.991  0.00  0.00    +0.000 C 
ATOM      3  C   ARG E   1      15.453   3.365  46.223  0.00  0.00    +0.000 C 
ATOM      4  O   ARG E   1      16.545   2.895  45.880  0.00  0.00    +0.000 OA
ATOM      5  CB  ARG E   1      15.839   5.889  46.081  0.00  0.00    +0.000 C 
ATOM      6  CG  ARG E   1      14.781   6.385  45.069  0.00  0.00    +0.000 C 
ATOM      7  CD  ARG E   1      14.575   5.439  43.875  0.00  0.00    +0.000 C 
ATOM      8  NE  ARG E   1      14.155   6.152  42.667  0.00  0.00    +0.000 N 
ATOM      9  CZ  ARG E   1      13.445   5.624  41.676  0.00  0.00    +0.000 C 
ATOM     10  NH2 ARG E   1      13.030   4.361  41.740  0.00  0.00    +0.000 N 
ATOM     11  NH1 ARG E   1      13.120   6.358  40.625  0.00  0.00    +0.000 N 
ATOM     12  H   ARG E   1      16.353   5.362  48.667  0.00  0.00    +0.000 HD
ATOM     13  H   ARG E   1      17.258   4.329  47.724  0.00  0.00    +0.000 HD
ATOM     14  H   ARG E   1      16.024   3.729  48.669  0.00  0.00    +0.000 HD
ATOM     15  H   ARG E   1      14.419   7.097  42.583  0.00  0.00    +0.000 HD
ATOM     16  H   ARG E   1      12.504   3.978  41.001  0.00  0.00    +0.000 HD
ATOM     17  H   ARG E   1      13.249   3.810  42.526  0.00  0.00    +0.000 HD
ATOM     18  H   ARG E   1      12.594   5.963  39.893  0.00  0.00    +0.000 HD
ATOM     19  H   ARG E   1      13.404   7.299  40.575  0.00  0.00    +0.000 HD
TER 
REMARK  Name = /data/user_data/xianyang/t3-aimnet-affinity-balanced/L1/Q86WV6/pocket.pdb
REMARK                            x       y       z     vdW  Elec       q    Type
REMARK                         _______ _______ _______ _____ _____    ______ ____
ATOM      1  N   TYR F   1      14.808   0.768  43.108  0.00  0.00    +0.000 N 
ATOM      2  CA  TYR F   1      14.682   0.590  41.672  0.00  0.00    +0.000 C 
ATOM      3  C   TYR F   1      14.298  -0.858  41.433  0.00  0.00    +0.000 C 
ATOM      4  O   TYR F   1      15.090  -1.775  41.660  0.00  0.00    +0.000 OA
ATOM      5  CB  TYR F   1      15.970   0.925  40.920  0.00  0.00    +0.000 C 
ATOM      6  CG  TYR F   1      16.497   2.314  41.176  0.00  0.00    +0.000 A 
ATOM      7  CD1 TYR F   1      16.051   3.403  40.425  0.00  0.00    +0.000 A 
ATOM      8  CD2 TYR F   1      17.450   2.547  42.162  0.00  0.00    +0.000 A 
ATOM      9  CE1 TYR F   1      16.564   4.684  40.635  0.00  0.00    +0.000 A 
ATOM     10  CE2 TYR F   1      17.932   3.830  42.416  0.00  0.00    +0.000 A 
ATOM     11  CZ  TYR F   1      17.496   4.895  41.642  0.00  0.00    +0.000 A 
ATOM     12  OH  TYR F   1      18.001   6.145  41.893  0.00  0.00    +0.000 OA
ATOM     13  H   TYR F   1      15.067   1.734  43.309  0.00  0.00    +0.000 HD
ATOM     14  H   TYR F   1      15.529   0.141  43.466  0.00  0.00    +0.000 HD
ATOM     15  H   TYR F   1      13.917   0.554  43.557  0.00  0.00    +0.000 HD
ATOM     16  H   TYR F   1      17.718   6.876  41.380  0.00  0.00    +0.000 HD
TER 
REMARK  Name = /data/user_data/xianyang/t3-aimnet-affinity-balanced/L1/Q86WV6/pocket.pdb
REMARK                            x       y       z     vdW  Elec       q    Type
REMARK                         _______ _______ _______ _____ _____    ______ ____
ATOM      1  N   GLU G   1      10.378  -2.686  30.104  0.00  0.00    +0.000 N 
ATOM      2  CA  GLU G   1       9.528  -1.584  30.588  0.00  0.00    +0.000 C 
ATOM      3  C   GLU G   1       9.371  -0.477  29.540  0.00  0.00    +0.000 C 
ATOM      4  O   GLU G   1      10.189  -0.353  28.627  0.00  0.00    +0.000 OA
ATOM      5  CB  GLU G   1      10.060  -0.996  31.919  0.00  0.00    +0.000 C 
ATOM      6  CG  GLU G   1      11.420  -0.329  31.824  0.00  0.00    +0.000 C 
ATOM      7  CD  GLU G   1      12.142  -0.117  33.135  0.00  0.00    +0.000 C 
ATOM      8  OE1 GLU G   1      12.520   1.042  33.417  0.00  0.00    +0.000 OA
ATOM      9  OE2 GLU G   1      12.306  -1.096  33.898  0.00  0.00    +0.000 OA
ATOM     10  N   TYR G   2       8.355   0.382  29.730  0.00  0.00    +0.000 N 
ATOM     11  CA  TYR G   2       8.156   1.552  28.897  0.00  0.00    +0.000 C 
ATOM     12  C   TYR G   2       8.963   2.724  29.465  0.00  0.00    +0.000 C 
ATOM     13  O   TYR G   2       9.081   2.853  30.690  0.00  0.00    +0.000 OA
ATOM     14  CB  TYR G   2       6.668   1.967  28.931  0.00  0.00    +0.000 C 
ATOM     15  CG  TYR G   2       5.752   1.046  28.164  0.00  0.00    +0.000 A 
ATOM     16  CD1 TYR G   2       5.532   1.227  26.801  0.00  0.00    +0.000 A 
ATOM     17  CD2 TYR G   2       5.103  -0.011  28.796  0.00  0.00    +0.000 A 
ATOM     18  CE1 TYR G   2       4.702   0.368  26.078  0.00  0.00    +0.000 A 
ATOM     19  CE2 TYR G   2       4.242  -0.859  28.090  0.00  0.00    +0.000 A 
ATOM     20  CZ  TYR G   2       4.058  -0.675  26.727  0.00  0.00    +0.000 A 
ATOM     21  OH  TYR G   2       3.214  -1.504  26.025  0.00  0.00    +0.000 OA
ATOM     22  H   GLU G   1       9.999  -3.048  29.229  0.00  0.00    +0.000 HD
ATOM     23  H   GLU G   1      10.398  -3.431  30.800  0.00  0.00    +0.000 HD
ATOM     24  H   GLU G   1      11.325  -2.341  29.948  0.00  0.00    +0.000 HD
ATOM     25  H   TYR G   2       7.721   0.210  30.463  0.00  0.00    +0.000 HD
ATOM     26  H   TYR G   2       3.092  -1.377  25.105  0.00  0.00    +0.000 HD
TER 
REMARK  Name = /data/user_data/xianyang/t3-aimnet-affinity-balanced/L1/Q86WV6/pocket.pdb
REMARK                            x       y       z     vdW  Elec       q    Type
REMARK                         _______ _______ _______ _____ _____    ______ ____
ATOM      1  N   THR H   1       8.670   5.920  30.716  0.00  0.00    +0.000 N 
ATOM      2  CA  THR H   1       7.571   6.688  31.341  0.00  0.00    +0.000 C 
ATOM      3  C   THR H   1       7.469   8.181  30.870  0.00  0.00    +0.000 C 
ATOM      4  O   THR H   1       6.343   8.661  30.820  0.00  0.00    +0.000 OA
ATOM      5  CB  THR H   1       7.639   6.561  32.846  0.00  0.00    +0.000 C 
ATOM      6  OG1 THR H   1       9.007   6.733  33.254  0.00  0.00    +0.000 OA
ATOM      7  CG2 THR H   1       7.092   5.186  33.331  0.00  0.00    +0.000 C 
ATOM      8  N   PRO H   2       8.553   8.908  30.463  0.00  0.00    +0.000 N 
ATOM      9  CA  PRO H   2       8.363  10.310  29.985  0.00  0.00    +0.000 C 
ATOM     10  C   PRO H   2       7.466  10.432  28.735  0.00  0.00    +0.000 C 
ATOM     11  O   PRO H   2       6.888  11.496  28.509  0.00  0.00    +0.000 OA
ATOM     12  CB  PRO H   2       9.793  10.784  29.678  0.00  0.00    +0.000 C 
ATOM     13  CG  PRO H   2      10.667   9.923  30.527  0.00  0.00    +0.000 C 
ATOM     14  CD  PRO H   2       9.988   8.563  30.516  0.00  0.00    +0.000 C 
ATOM     15  H   THR H   1       8.615   6.012  29.702  0.00  0.00    +0.000 HD
ATOM     16  H   THR H   1       8.587   4.936  30.973  0.00  0.00    +0.000 HD
ATOM     17  H   THR H   1       9.566   6.282  31.042  0.00  0.00    +0.000 HD
ATOM     18  H   THR H   1       9.555   6.045  32.846  0.00  0.00    +0.000 HD
TER 
REMARK  Name = /data/user_data/xianyang/t3-aimnet-affinity-balanced/L1/Q86WV6/pocket.pdb
REMARK                            x       y       z     vdW  Elec       q    Type
REMARK                         _______ _______ _______ _____ _____    ______ ____
ATOM      1  N   THR I   1       4.223  11.436  29.750  0.00  0.00    +0.000 N 
ATOM      2  CA  THR I   1       4.126  12.869  30.044  0.00  0.00    +0.000 C 
ATOM      3  C   THR I   1       3.704  13.610  28.770  0.00  0.00    +0.000 C 
ATOM      4  O   THR I   1       2.896  14.535  28.860  0.00  0.00    +0.000 OA
ATOM      5  CB  THR I   1       5.446  13.448  30.606  0.00  0.00    +0.000 C 
ATOM      6  OG1 THR I   1       5.743  12.793  31.834  0.00  0.00    +0.000 OA
ATOM      7  CG2 THR I   1       5.384  14.993  30.769  0.00  0.00    +0.000 C 
ATOM      8  H   THR I   1       3.331  11.103  29.384  0.00  0.00    +0.000 HD
ATOM      9  H   THR I   1       4.450  10.928  30.605  0.00  0.00    +0.000 HD
ATOM     10  H   THR I   1       4.955  11.280  29.057  0.00  0.00    +0.000 HD
ATOM     11  H   THR I   1       5.029  12.957  32.469  0.00  0.00    +0.000 HD
TER 
REMARK  Name = /data/user_data/xianyang/t3-aimnet-affinity-balanced/L1/Q86WV6/pocket.pdb
REMARK                            x       y       z     vdW  Elec       q    Type
REMARK                         _______ _______ _______ _____ _____    ______ ____
ATOM      1  N   GLY J   1       8.552  21.259  30.593  0.00  0.00    +0.000 N 
ATOM      2  CA  GLY J   1       8.421  19.813  30.413  0.00  0.00    +0.000 C 
ATOM      3  C   GLY J   1       8.829  19.011  31.641  0.00  0.00    +0.000 C 
ATOM      4  O   GLY J   1       8.158  18.032  31.998  0.00  0.00    +0.000 OA
ATOM      5  N   LEU J   2       9.938  19.405  32.304  0.00  0.00    +0.000 N 
ATOM      6  CA  LEU J   2      10.395  18.714  33.517  0.00  0.00    +0.000 C 
ATOM      7  C   LEU J   2       9.379  18.792  34.671  0.00  0.00    +0.000 C 
ATOM      8  O   LEU J   2       9.195  17.813  35.378  0.00  0.00    +0.000 OA
ATOM      9  CB  LEU J   2      11.761  19.219  34.007  0.00  0.00    +0.000 C 
ATOM     10  CG  LEU J   2      12.956  19.067  33.078  0.00  0.00    +0.000 C 
ATOM     11  CD2 LEU J   2      14.234  19.555  33.770  0.00  0.00    +0.000 C 
ATOM     12  CD1 LEU J   2      13.106  17.631  32.558  0.00  0.00    +0.000 C 
ATOM     13  H   GLY J   1       8.264  21.735  29.738  0.00  0.00    +0.000 HD
ATOM     14  H   GLY J   1       9.524  21.489  30.800  0.00  0.00    +0.000 HD
ATOM     15  H   GLY J   1       7.959  21.560  31.366  0.00  0.00    +0.000 HD
ATOM     16  H   LEU J   2      10.452  20.174  31.966  0.00  0.00    +0.000 HD
TER 
REMARK  Name = /data/user_data/xianyang/t3-aimnet-affinity-balanced/L1/Q86WV6/pocket.pdb
REMARK                            x       y       z     vdW  Elec       q    Type
REMARK                         _______ _______ _______ _____ _____    ______ ____
ATOM      1  N   TRP K   1       6.016  19.343  34.357  0.00  0.00    +0.000 N 
ATOM      2  CA  TRP K   1       4.848  18.522  33.955  0.00  0.00    +0.000 C 
ATOM      3  C   TRP K   1       5.154  17.038  34.135  0.00  0.00    +0.000 C 
ATOM      4  O   TRP K   1       4.308  16.281  34.591  0.00  0.00    +0.000 OA
ATOM      5  CB  TRP K   1       4.452  18.810  32.499  0.00  0.00    +0.000 C 
ATOM      6  CG  TRP K   1       3.476  19.944  32.421  0.00  0.00    +0.000 C 
ATOM      7  CD1 TRP K   1       3.754  21.279  32.311  0.00  0.00    +0.000 C 
ATOM      8  CD2 TRP K   1       2.063  19.844  32.670  0.00  0.00    +0.000 C 
ATOM      9  NE1 TRP K   1       2.572  22.007  32.355  0.00  0.00    +0.000 NA
ATOM     10  CE2 TRP K   1       1.534  21.151  32.630  0.00  0.00    +0.000 C 
ATOM     11  CE3 TRP K   1       1.197  18.769  32.950  0.00  0.00    +0.000 C 
ATOM     12  CZ2 TRP K   1       0.166  21.407  32.829  0.00  0.00    +0.000 C 
ATOM     13  CZ3 TRP K   1      -0.167  19.027  33.107  0.00  0.00    +0.000 C 
ATOM     14  CH2 TRP K   1      -0.664  20.327  33.033  0.00  0.00    +0.000 C 
ATOM     15  N   SER K   2       6.385  16.630  33.809  0.00  0.00    +0.000 N 
ATOM     16  CA  SER K   2       6.765  15.232  33.947  0.00  0.00    +0.000 C 
ATOM     17  C   SER K   2       6.926  14.816  35.411  0.00  0.00    +0.000 C 
ATOM     18  O   SER K   2       6.518  13.719  35.775  0.00  0.00    +0.000 OA
ATOM     19  CB  SER K   2       8.008  14.935  33.093  0.00  0.00    +0.000 C 
ATOM     20  OG  SER K   2       8.154  13.549  32.781  0.00  0.00    +0.000 OA
ATOM     21  N   TYR K   3       7.482  15.706  36.260  0.00  0.00    +0.000 N 
ATOM     22  CA  TYR K   3       7.624  15.465  37.689  0.00  0.00    +0.000 C 
ATOM     23  C   TYR K   3       6.225  15.279  38.305  0.00  0.00    +0.000 C 
ATOM     24  O   TYR K   3       6.024  14.407  39.157  0.00  0.00    +0.000 OA
ATOM     25  CB  TYR K   3       8.369  16.630  38.353  0.00  0.00    +0.000 C 
ATOM     26  CG  TYR K   3       8.685  16.430  39.813  0.00  0.00    +0.000 A 
ATOM     27  CD1 TYR K   3       9.500  15.382  40.234  0.00  0.00    +0.000 A 
ATOM     28  CD2 TYR K   3       8.258  17.345  40.768  0.00  0.00    +0.000 A 
ATOM     29  CE1 TYR K   3       9.829  15.217  41.575  0.00  0.00    +0.000 A 
ATOM     30  CE2 TYR K   3       8.615  17.213  42.112  0.00  0.00    +0.000 A 
ATOM     31  CZ  TYR K   3       9.388  16.140  42.509  0.00  0.00    +0.000 A 
ATOM     32  OH  TYR K   3       9.704  15.988  43.825  0.00  0.00    +0.000 OA
ATOM     33  H   TRP K   1       5.796  20.331  34.231  0.00  0.00    +0.000 HD
ATOM     34  H   TRP K   1       6.820  19.097  33.779  0.00  0.00    +0.000 HD
ATOM     35  H   TRP K   1       6.235  19.165  35.337  0.00  0.00    +0.000 HD
ATOM     36  H   SER K   2       7.041  17.282  33.472  0.00  0.00    +0.000 HD
ATOM     37  H   SER K   2       7.390  13.252  32.262  0.00  0.00    +0.000 HD
ATOM     38  H   TYR K   3       7.808  16.560  35.895  0.00  0.00    +0.000 HD
ATOM     39  H   TYR K   3      10.228  15.262  44.100  0.00  0.00    +0.000 HD
TER 
REMARK  Name = /data/user_data/xianyang/t3-aimnet-affinity-balanced/L1/Q86WV6/pocket.pdb
REMARK                            x       y       z     vdW  Elec       q    Type
REMARK                         _______ _______ _______ _____ _____    ______ ____
ATOM      1  N   GLY L   1       4.490  11.940  36.132  0.00  0.00    +0.000 N 
ATOM      2  CA  GLY L   1       5.271  10.728  36.361  0.00  0.00    +0.000 C 
ATOM      3  C   GLY L   1       5.603  10.356  37.786  0.00  0.00    +0.000 C 
ATOM      4  O   GLY L   1       6.110   9.259  38.027  0.00  0.00    +0.000 OA
ATOM      5  N   TYR L   2       5.326  11.244  38.738  0.00  0.00    +0.000 N 
ATOM      6  CA  TYR L   2       5.675  10.987  40.128  0.00  0.00    +0.000 C 
ATOM      7  C   TYR L   2       4.652  11.509  41.152  0.00  0.00    +0.000 C 
ATOM      8  O   TYR L   2       4.014  10.692  41.824  0.00  0.00    +0.000 OA
ATOM      9  CB  TYR L   2       7.103  11.548  40.429  0.00  0.00    +0.000 C 
ATOM     10  CG  TYR L   2       7.578  11.300  41.843  0.00  0.00    +0.000 A 
ATOM     11  CD1 TYR L   2       7.671  10.004  42.353  0.00  0.00    +0.000 A 
ATOM     12  CD2 TYR L   2       7.924  12.359  42.678  0.00  0.00    +0.000 A 
ATOM     13  CE1 TYR L   2       8.134   9.768  43.641  0.00  0.00    +0.000 A 
ATOM     14  CE2 TYR L   2       8.403  12.136  43.969  0.00  0.00    +0.000 A 
ATOM     15  CZ  TYR L   2       8.483  10.837  44.455  0.00  0.00    +0.000 A 
ATOM     16  OH  TYR L   2       8.995  10.587  45.702  0.00  0.00    +0.000 OA
ATOM     17  H   GLY L   1       4.343  12.065  35.131  0.00  0.00    +0.000 HD
ATOM     18  H   GLY L   1       4.994  12.745  36.505  0.00  0.00    +0.000 HD
ATOM     19  H   GLY L   1       3.588  11.857  36.601  0.00  0.00    +0.000 HD
ATOM     20  H   TYR L   2       4.878  12.087  38.499  0.00  0.00    +0.000 HD
ATOM     21  H   TYR L   2       9.045   9.707  46.020  0.00  0.00    +0.000 HD
TER 
REMARK  Name = /data/user_data/xianyang/t3-aimnet-affinity-balanced/L1/Q86WV6/pocket.pdb
REMARK                            x       y       z     vdW  Elec       q    Type
REMARK                         _______ _______ _______ _____ _____    ______ ____
ATOM      1  N   LEU M   1       1.056  10.273  41.255  0.00  0.00    +0.000 N 
ATOM      2  CA  LEU M   1       1.005   8.871  41.643  0.00  0.00    +0.000 C 
ATOM      3  C   LEU M   1       1.253   8.599  43.135  0.00  0.00    +0.000 C 
ATOM      4  O   LEU M   1       0.733   7.620  43.657  0.00  0.00    +0.000 OA
ATOM      5  CB  LEU M   1       1.956   8.039  40.759  0.00  0.00    +0.000 C 
ATOM      6  CG  LEU M   1       1.650   8.115  39.244  0.00  0.00    +0.000 C 
ATOM      7  CD1 LEU M   1       2.840   7.684  38.427  0.00  0.00    +0.000 C 
ATOM      8  CD2 LEU M   1       0.409   7.285  38.877  0.00  0.00    +0.000 C 
ATOM      9  H   LEU M   1       0.881  10.355  40.254  0.00  0.00    +0.000 HD
ATOM     10  H   LEU M   1       1.978  10.652  41.471  0.00  0.00    +0.000 HD
ATOM     11  H   LEU M   1       0.345  10.794  41.768  0.00  0.00    +0.000 HD
TER 
REMARK  Name = /data/user_data/xianyang/t3-aimnet-affinity-balanced/L1/Q86WV6/pocket.pdb
REMARK                            x       y       z     vdW  Elec       q    Type
REMARK                         _______ _______ _______ _____ _____    ______ ____
ATOM      1  N   ARG N   1       3.590  -0.130  37.326  0.00  0.00    +0.000 N 
ATOM      2  CA  ARG N   1       3.835   1.096  36.584  0.00  0.00    +0.000 C 
ATOM      3  C   ARG N   1       4.646   0.829  35.323  0.00  0.00    +0.000 C 
ATOM      4  O   ARG N   1       5.819   0.442  35.408  0.00  0.00    +0.000 OA
ATOM      5  CB  ARG N   1       4.562   2.120  37.509  0.00  0.00    +0.000 C 
ATOM      6  CG  ARG N   1       5.013   3.416  36.836  0.00  0.00    +0.000 C 
ATOM      7  CD  ARG N   1       3.885   4.396  36.665  0.00  0.00    +0.000 C 
ATOM      8  NE  ARG N   1       4.334   5.621  35.998  0.00  0.00    +0.000 N 
ATOM      9  CZ  ARG N   1       3.601   6.295  35.118  0.00  0.00    +0.000 C 
ATOM     10  NH2 ARG N   1       2.390   5.866  34.789  0.00  0.00    +0.000 N 
ATOM     11  NH1 ARG N   1       4.076   7.401  34.557  0.00  0.00    +0.000 N 
ATOM     12  H   ARG N   1       3.115  -0.802  36.724  0.00  0.00    +0.000 HD
ATOM     13  H   ARG N   1       3.005   0.074  38.136  0.00  0.00    +0.000 HD
ATOM     14  H   ARG N   1       4.479  -0.522  37.638  0.00  0.00    +0.000 HD
ATOM     15  H   ARG N   1       5.231   5.965  36.214  0.00  0.00    +0.000 HD
ATOM     16  H   ARG N   1       1.850   6.368  34.137  0.00  0.00    +0.000 HD
ATOM     17  H   ARG N   1       2.031   5.045  35.197  0.00  0.00    +0.000 HD
ATOM     18  H   ARG N   1       3.529   7.897  33.906  0.00  0.00    +0.000 HD
ATOM     19  H   ARG N   1       4.975   7.725  34.792  0.00  0.00    +0.000 HD
TER 
REMARK  Name = /data/user_data/xianyang/t3-aimnet-affinity-balanced/L1/Q86WV6/pocket.pdb
REMARK                            x       y       z     vdW  Elec       q    Type
REMARK                         _______ _______ _______ _____ _____    ______ ____
ATOM      1  N   ILE O   1       6.561  -2.261  35.026  0.00  0.00    +0.000 N 
ATOM      2  CA  ILE O   1       7.323  -2.568  36.228  0.00  0.00    +0.000 C 
ATOM      3  C   ILE O   1       6.294  -3.038  37.253  0.00  0.00    +0.000 C 
ATOM      4  O   ILE O   1       5.470  -2.238  37.708  0.00  0.00    +0.000 OA
ATOM      5  CB  ILE O   1       8.175  -1.362  36.763  0.00  0.00    +0.000 C 
ATOM      6  CG1 ILE O   1       9.221  -0.868  35.706  0.00  0.00    +0.000 C 
ATOM      7  CG2 ILE O   1       8.857  -1.742  38.089  0.00  0.00    +0.000 C 
ATOM      8  CD1 ILE O   1       9.761   0.565  35.980  0.00  0.00    +0.000 C 
ATOM      9  H   ILE O   1       7.195  -1.938  34.295  0.00  0.00    +0.000 HD
ATOM     10  H   ILE O   1       5.880  -1.530  35.233  0.00  0.00    +0.000 HD
ATOM     11  H   ILE O   1       6.074  -3.099  34.708  0.00  0.00    +0.000 HD
TER 
REMARK  Name = /data/user_data/xianyang/t3-aimnet-affinity-balanced/L1/Q86WV6/pocket.pdb
REMARK                            x       y       z     vdW  Elec       q    Type
REMARK                         _______ _______ _______ _____ _____    ______ ____
ATOM      1  N   ARG P   1       6.287  -1.435  41.288  0.00  0.00    +0.000 N 
ATOM      2  CA  ARG P   1       7.256  -0.336  41.253  0.00  0.00    +0.000 C 
ATOM      3  C   ARG P   1       7.194   0.257  42.681  0.00  0.00    +0.000 C 
ATOM      4  O   ARG P   1       6.107   0.570  43.180  0.00  0.00    +0.000 OA
ATOM      5  CB  ARG P   1       6.856   0.726  40.177  0.00  0.00    +0.000 C 
ATOM      6  CG  ARG P   1       7.966   1.749  39.832  0.00  0.00    +0.000 C 
ATOM      7  CD  ARG P   1       8.174   2.814  40.906  0.00  0.00    +0.000 C 
ATOM      8  NE  ARG P   1       8.632   4.091  40.354  0.00  0.00    +0.000 N 
ATOM      9  CZ  ARG P   1       9.343   5.003  41.008  0.00  0.00    +0.000 C 
ATOM     10  NH2 ARG P   1       9.739   4.778  42.258  0.00  0.00    +0.000 N 
ATOM     11  NH1 ARG P   1       9.662   6.148  40.420  0.00  0.00    +0.000 N 
ATOM     12  H   ARG P   1       6.258  -1.892  40.377  0.00  0.00    +0.000 HD
ATOM     13  H   ARG P   1       5.363  -1.066  41.513  0.00  0.00    +0.000 HD
ATOM     14  H   ARG P   1       6.565  -2.111  41.999  0.00  0.00    +0.000 HD
ATOM     15  H   ARG P   1       8.393   4.290  39.420  0.00  0.00    +0.000 HD
ATOM     16  H   ARG P   1       9.507   3.931  42.703  0.00  0.00    +0.000 HD
ATOM     17  H   ARG P   1      10.264   5.459  42.738  0.00  0.00    +0.000 HD
ATOM     18  H   ARG P   1       9.373   6.324  39.495  0.00  0.00    +0.000 HD
ATOM     19  H   ARG P   1      10.187   6.822  40.908  0.00  0.00    +0.000 HD
TER 
REMARK  Name = /data/user_data/xianyang/t3-aimnet-affinity-balanced/L1/Q86WV6/pocket.pdb
REMARK                            x       y       z     vdW  Elec       q    Type
REMARK                         _______ _______ _______ _____ _____    ______ ____
ATOM      1  N   TYR Q   1       7.866   3.022  45.640  0.00  0.00    +0.000 N 
ATOM      2  CA  TYR Q   1       8.020   4.428  45.977  0.00  0.00    +0.000 C 
ATOM      3  C   TYR Q   1       8.373   4.487  47.451  0.00  0.00    +0.000 C 
ATOM      4  O   TYR Q   1       7.541   4.167  48.306  0.00  0.00    +0.000 OA
ATOM      5  CB  TYR Q   1       6.752   5.249  45.714  0.00  0.00    +0.000 C 
ATOM      6  CG  TYR Q   1       6.247   5.166  44.295  0.00  0.00    +0.000 A 
ATOM      7  CD1 TYR Q   1       6.724   6.032  43.311  0.00  0.00    +0.000 A 
ATOM      8  CD2 TYR Q   1       5.280   4.232  43.933  0.00  0.00    +0.000 A 
ATOM      9  CE1 TYR Q   1       6.217   5.999  42.017  0.00  0.00    +0.000 A 
ATOM     10  CE2 TYR Q   1       4.813   4.149  42.626  0.00  0.00    +0.000 A 
ATOM     11  CZ  TYR Q   1       5.272   5.042  41.674  0.00  0.00    +0.000 A 
ATOM     12  OH  TYR Q   1       4.794   4.954  40.390  0.00  0.00    +0.000 OA
ATOM     13  H   TYR Q   1       7.627   2.933  44.652  0.00  0.00    +0.000 HD
ATOM     14  H   TYR Q   1       7.122   2.616  46.208  0.00  0.00    +0.000 HD
ATOM     15  H   TYR Q   1       8.741   2.531  45.824  0.00  0.00    +0.000 HD
ATOM     16  H   TYR Q   1       5.096   5.552  39.735  0.00  0.00    +0.000 HD
TER 
REMARK  Name = /data/user_data/xianyang/t3-aimnet-affinity-balanced/L1/Q86WV6/pocket.pdb
REMARK                            x       y       z     vdW  Elec       q    Type
REMARK                         _______ _______ _______ _____ _____    ______ ____
ATOM      1  N   GLU R   1      12.405  15.515  50.724  0.00  0.00    +0.000 N 
ATOM      2  CA  GLU R   1      13.252  15.158  49.559  0.00  0.00    +0.000 C 
ATOM      3  C   GLU R   1      13.429  16.320  48.585  0.00  0.00    +0.000 C 
ATOM      4  O   GLU R   1      12.620  17.240  48.563  0.00  0.00    +0.000 OA
ATOM      5  CB  GLU R   1      12.715  13.920  48.798  0.00  0.00    +0.000 C 
ATOM      6  CG  GLU R   1      11.346  14.111  48.164  0.00  0.00    +0.000 C 
ATOM      7  CD  GLU R   1      10.647  12.829  47.760  0.00  0.00    +0.000 C 
ATOM      8  OE1 GLU R   1      10.267  12.700  46.577  0.00  0.00    +0.000 OA
ATOM      9  OE2 GLU R   1      10.488  11.945  48.623  0.00  0.00    +0.000 OA
ATOM     10  N   TYR R   2      14.455  16.230  47.733  0.00  0.00    +0.000 N 
ATOM     11  CA  TYR R   2      14.689  17.191  46.650  0.00  0.00    +0.000 C 
ATOM     12  C   TYR R   2      13.889  16.781  45.416  0.00  0.00    +0.000 C 
ATOM     13  O   TYR R   2      13.736  15.581  45.143  0.00  0.00    +0.000 OA
ATOM     14  CB  TYR R   2      16.176  17.190  46.249  0.00  0.00    +0.000 C 
ATOM     15  CG  TYR R   2      17.090  17.829  47.267  0.00  0.00    +0.000 A 
ATOM     16  CD1 TYR R   2      17.328  19.201  47.254  0.00  0.00    +0.000 A 
ATOM     17  CD2 TYR R   2      17.726  17.062  48.241  0.00  0.00    +0.000 A 
ATOM     18  CE1 TYR R   2      18.153  19.803  48.211  0.00  0.00    +0.000 A 
ATOM     19  CE2 TYR R   2      18.573  17.650  49.185  0.00  0.00    +0.000 A 
ATOM     20  CZ  TYR R   2      18.771  19.026  49.171  0.00  0.00    +0.000 A 
ATOM     21  OH  TYR R   2      19.610  19.617  50.083  0.00  0.00    +0.000 OA
ATOM     22  H   GLU R   1      12.797  16.333  51.191  0.00  0.00    +0.000 HD
ATOM     23  H   GLU R   1      12.376  14.731  51.376  0.00  0.00    +0.000 HD
ATOM     24  H   GLU R   1      11.460  15.726  50.405  0.00  0.00    +0.000 HD
ATOM     25  H   TYR R   2      15.085  15.481  47.838  0.00  0.00    +0.000 HD
ATOM     26  H   TYR R   2      19.739  20.545  50.068  0.00  0.00    +0.000 HD
TER 
REMARK  Name = /data/user_data/xianyang/t3-aimnet-affinity-balanced/L1/Q86WV6/pocket.pdb
REMARK                            x       y       z     vdW  Elec       q    Type
REMARK                         _______ _______ _______ _____ _____    ______ ____
ATOM      1  N   THR S   1      14.210  15.920  42.096  0.00  0.00    +0.000 N 
ATOM      2  CA  THR S   1      15.329  15.394  41.278  0.00  0.00    +0.000 C 
ATOM      3  C   THR S   1      15.469  16.033  39.845  0.00  0.00    +0.000 C 
ATOM      4  O   THR S   1      16.612  16.142  39.408  0.00  0.00    +0.000 OA
ATOM      5  CB  THR S   1      15.249  13.886  41.210  0.00  0.00    +0.000 C 
ATOM      6  OG1 THR S   1      13.894  13.516  40.938  0.00  0.00    +0.000 OA
ATOM      7  CG2 THR S   1      15.750  13.235  42.508  0.00  0.00    +0.000 C 
ATOM      8  N   PRO S   2      14.395  16.528  39.146  0.00  0.00    +0.000 N 
ATOM      9  CA  PRO S   2      14.609  17.194  37.844  0.00  0.00    +0.000 C 
ATOM     10  C   PRO S   2      15.534  18.413  37.890  0.00  0.00    +0.000 C 
ATOM     11  O   PRO S   2      16.105  18.748  36.859  0.00  0.00    +0.000 OA
ATOM     12  CB  PRO S   2      13.187  17.578  37.394  0.00  0.00    +0.000 C 
ATOM     13  CG  PRO S   2      12.297  16.609  38.123  0.00  0.00    +0.000 C 
ATOM     14  CD  PRO S   2      12.940  16.441  39.448  0.00  0.00    +0.000 C 
ATOM     15  N   LEU S   3      15.705  19.068  39.065  0.00  0.00    +0.000 N 
ATOM     16  CA  LEU S   3      16.642  20.202  39.201  0.00  0.00    +0.000 C 
ATOM     17  C   LEU S   3      18.074  19.738  38.959  0.00  0.00    +0.000 C 
ATOM     18  O   LEU S   3      18.867  20.486  38.404  0.00  0.00    +0.000 OA
ATOM     19  CB  LEU S   3      16.523  20.912  40.545  0.00  0.00    +0.000 C 
ATOM     20  CG  LEU S   3      15.201  21.670  40.752  0.00  0.00    +0.000 C 
ATOM     21  CD2 LEU S   3      15.079  22.159  42.194  0.00  0.00    +0.000 C 
ATOM     22  CD1 LEU S   3      15.001  22.798  39.704  0.00  0.00    +0.000 C 
ATOM     23  H   THR S   1      14.269  16.937  42.138  0.00  0.00    +0.000 HD
ATOM     24  H   THR S   1      14.269  15.536  43.039  0.00  0.00    +0.000 HD
ATOM     25  H   THR S   1      13.323  15.648  41.673  0.00  0.00    +0.000 HD
ATOM     26  H   THR S   1      13.321  13.838  41.652  0.00  0.00    +0.000 HD
ATOM     27  H   LEU S   3      15.189  18.779  39.852  0.00  0.00    +0.000 HD
TER 
REMARK  Name = /data/user_data/xianyang/t3-aimnet-affinity-balanced/L1/Q86WV6/pocket.pdb
REMARK                            x       y       z     vdW  Elec       q    Type
REMARK                         _______ _______ _______ _____ _____    ______ ____
ATOM      1  N   THR T   1      18.767  17.498  36.765  0.00  0.00    +0.000 N 
ATOM      2  CA  THR T   1      18.861  17.387  35.311  0.00  0.00    +0.000 C 
ATOM      3  C   THR T   1      19.297  18.746  34.722  0.00  0.00    +0.000 C 
ATOM      4  O   THR T   1      20.112  18.768  33.807  0.00  0.00    +0.000 OA
ATOM      5  CB  THR T   1      17.557  16.898  34.681  0.00  0.00    +0.000 C 
ATOM      6  OG1 THR T   1      17.253  15.580  35.187  0.00  0.00    +0.000 OA
ATOM      7  CG2 THR T   1      17.612  16.931  33.138  0.00  0.00    +0.000 C 
ATOM      8  H   THR T   1      18.479  16.601  37.157  0.00  0.00    +0.000 HD
ATOM      9  H   THR T   1      18.080  18.211  37.008  0.00  0.00    +0.000 HD
ATOM     10  H   THR T   1      19.677  17.759  37.146  0.00  0.00    +0.000 HD
ATOM     11  H   THR T   1      17.964  14.968  34.942  0.00  0.00    +0.000 HD
TER 
