REMARK  Name = /data/user_data/xianyang/t3-aimnet-affinity-balanced/L1/Q6GI75/pocket.pdb
REMARK                            x       y       z     vdW  Elec       q    Type
REMARK                         _______ _______ _______ _____ _____    ______ ____
ATOM      1  N   ALA A   1     112.962  59.839  40.422  0.00  0.00    +0.000 N 
ATOM      2  CA  ALA A   1     113.782  61.055  40.357  0.00  0.00    +0.000 C 
ATOM      3  C   ALA A   1     113.303  62.007  41.433  0.00  0.00    +0.000 C 
ATOM      4  O   ALA A   1     112.098  62.024  41.765  0.00  0.00    +0.000 OA
ATOM      5  CB  ALA A   1     113.642  61.711  39.001  0.00  0.00    +0.000 C 
ATOM      6  N   PHE A   2     114.223  62.792  41.981  0.00  0.00    +0.000 N 
ATOM      7  CA  PHE A   2     113.830  63.869  42.870  0.00  0.00    +0.000 C 
ATOM      8  C   PHE A   2     114.912  64.931  42.994  0.00  0.00    +0.000 C 
ATOM      9  O   PHE A   2     116.101  64.614  43.053  0.00  0.00    +0.000 OA
ATOM     10  CB  PHE A   2     113.557  63.332  44.274  0.00  0.00    +0.000 C 
ATOM     11  CG  PHE A   2     112.941  64.353  45.185  0.00  0.00    +0.000 A 
ATOM     12  CD1 PHE A   2     111.569  64.662  45.080  0.00  0.00    +0.000 A 
ATOM     13  CD2 PHE A   2     113.729  65.043  46.105  0.00  0.00    +0.000 A 
ATOM     14  CE1 PHE A   2     110.993  65.621  45.912  0.00  0.00    +0.000 A 
ATOM     15  CE2 PHE A   2     113.157  66.005  46.951  0.00  0.00    +0.000 A 
ATOM     16  CZ  PHE A   2     111.798  66.295  46.852  0.00  0.00    +0.000 A 
ATOM     17  N   ALA A   3     114.461  66.179  43.074  0.00  0.00    +0.000 N 
ATOM     18  CA  ALA A   3     115.286  67.305  43.519  0.00  0.00    +0.000 C 
ATOM     19  C   ALA A   3     114.396  68.200  44.355  0.00  0.00    +0.000 C 
ATOM     20  O   ALA A   3     113.179  68.231  44.130  0.00  0.00    +0.000 OA
ATOM     21  CB  ALA A   3     115.823  68.078  42.312  0.00  0.00    +0.000 C 
ATOM     22  N   ASN A   4     114.979  68.931  45.309  0.00  0.00    +0.000 N 
ATOM     23  CA  ASN A   4     114.227  69.980  46.014  0.00  0.00    +0.000 C 
ATOM     24  C   ASN A   4     113.651  70.986  45.023  0.00  0.00    +0.000 C 
ATOM     25  O   ASN A   4     114.333  71.430  44.081  0.00  0.00    +0.000 OA
ATOM     26  CB  ASN A   4     115.103  70.709  47.054  0.00  0.00    +0.000 C 
ATOM     27  CG  ASN A   4     115.570  69.804  48.176  0.00  0.00    +0.000 C 
ATOM     28  OD1 ASN A   4     116.712  69.927  48.632  0.00  0.00    +0.000 OA
ATOM     29  ND2 ASN A   4     114.699  68.906  48.647  0.00  0.00    +0.000 N 
ATOM     30  N   MET A   5     112.385  71.338  45.221  0.00  0.00    +0.000 N 
ATOM     31  CA  MET A   5     111.708  72.258  44.312  0.00  0.00    +0.000 C 
ATOM     32  C   MET A   5     112.451  73.576  44.123  0.00  0.00    +0.000 C 
ATOM     33  O   MET A   5     112.445  74.144  43.025  0.00  0.00    +0.000 OA
ATOM     34  CB  MET A   5     110.264  72.504  44.770  0.00  0.00    +0.000 C 
ATOM     35  CG  MET A   5     109.405  73.162  43.710  0.00  0.00    +0.000 C 
ATOM     36  SD  MET A   5     109.120  72.056  42.299  0.00  0.00    +0.000 S 
ATOM     37  CE  MET A   5     109.333  73.233  40.977  0.00  0.00    +0.000 C 
ATOM     38  H   ALA A   1     113.269  59.183  39.704  0.00  0.00    +0.000 HD
ATOM     39  H   ALA A   1     111.983  60.080  40.266  0.00  0.00    +0.000 HD
ATOM     40  H   ALA A   1     113.064  59.409  41.341  0.00  0.00    +0.000 HD
ATOM     41  H   PHE A   2     115.176  62.643  41.783  0.00  0.00    +0.000 HD
ATOM     42  H   ALA A   3     113.526  66.355  42.822  0.00  0.00    +0.000 HD
ATOM     43  H   ASN A   4     115.921  68.766  45.542  0.00  0.00    +0.000 HD
ATOM     44  H   ASN A   4     113.798  68.841  48.255  0.00  0.00    +0.000 HD
ATOM     45  H   ASN A   4     114.958  68.310  49.386  0.00  0.00    +0.000 HD
ATOM     46  H   MET A   5     111.896  70.972  45.993  0.00  0.00    +0.000 HD
TER 
REMARK  Name = /data/user_data/xianyang/t3-aimnet-affinity-balanced/L1/Q6GI75/pocket.pdb
REMARK                            x       y       z     vdW  Elec       q    Type
REMARK                         _______ _______ _______ _____ _____    ______ ____
ATOM      1  N   LEU B   1     114.711  73.703  41.166  0.00  0.00    +0.000 N 
ATOM      2  CA  LEU B   1     114.125  73.588  39.825  0.00  0.00    +0.000 C 
ATOM      3  C   LEU B   1     113.551  74.906  39.308  0.00  0.00    +0.000 C 
ATOM      4  O   LEU B   1     112.692  74.938  38.417  0.00  0.00    +0.000 OA
ATOM      5  CB  LEU B   1     113.060  72.482  39.822  0.00  0.00    +0.000 C 
ATOM      6  CG  LEU B   1     113.564  71.080  40.183  0.00  0.00    +0.000 C 
ATOM      7  CD2 LEU B   1     112.420  70.071  40.255  0.00  0.00    +0.000 C 
ATOM      8  CD1 LEU B   1     114.642  70.615  39.197  0.00  0.00    +0.000 C 
ATOM      9  H   LEU B   1     115.418  74.438  41.166  0.00  0.00    +0.000 HD
ATOM     10  H   LEU B   1     115.143  72.816  41.426  0.00  0.00    +0.000 HD
ATOM     11  H   LEU B   1     113.979  73.935  41.838  0.00  0.00    +0.000 HD
TER 
REMARK  Name = /data/user_data/xianyang/t3-aimnet-affinity-balanced/L1/Q6GI75/pocket.pdb
REMARK                            x       y       z     vdW  Elec       q    Type
REMARK                         _______ _______ _______ _____ _____    ______ ____
ATOM      1  N   THR C   1     114.652  58.804  31.500  0.00  0.00    +0.000 N 
ATOM      2  CA  THR C   1     115.412  60.060  31.449  0.00  0.00    +0.000 C 
ATOM      3  C   THR C   1     114.676  61.162  30.652  0.00  0.00    +0.000 C 
ATOM      4  O   THR C   1     113.524  60.983  30.230  0.00  0.00    +0.000 OA
ATOM      5  CB  THR C   1     116.884  59.794  30.978  0.00  0.00    +0.000 C 
ATOM      6  OG1 THR C   1     117.647  60.994  31.183  0.00  0.00    +0.000 OA
ATOM      7  CG2 THR C   1     116.964  59.527  29.443  0.00  0.00    +0.000 C 
ATOM      8  N   TYR C   2     115.313  62.325  30.531  0.00  0.00    +0.000 N 
ATOM      9  CA  TYR C   2     114.730  63.463  29.848  0.00  0.00    +0.000 C 
ATOM     10  C   TYR C   2     115.845  64.179  29.094  0.00  0.00    +0.000 C 
ATOM     11  O   TYR C   2     117.008  64.132  29.523  0.00  0.00    +0.000 OA
ATOM     12  CB  TYR C   2     114.088  64.393  30.888  0.00  0.00    +0.000 C 
ATOM     13  CG  TYR C   2     113.410  65.600  30.289  0.00  0.00    +0.000 A 
ATOM     14  CD1 TYR C   2     112.352  65.447  29.382  0.00  0.00    +0.000 A 
ATOM     15  CD2 TYR C   2     113.825  66.897  30.631  0.00  0.00    +0.000 A 
ATOM     16  CE1 TYR C   2     111.713  66.565  28.837  0.00  0.00    +0.000 A 
ATOM     17  CE2 TYR C   2     113.214  68.006  30.073  0.00  0.00    +0.000 A 
ATOM     18  CZ  TYR C   2     112.159  67.835  29.196  0.00  0.00    +0.000 A 
ATOM     19  OH  TYR C   2     111.558  68.954  28.651  0.00  0.00    +0.000 OA
ATOM     20  H   THR C   1     113.699  58.996  31.808  0.00  0.00    +0.000 HD
ATOM     21  H   THR C   1     115.098  58.163  32.156  0.00  0.00    +0.000 HD
ATOM     22  H   THR C   1     114.631  58.381  30.572  0.00  0.00    +0.000 HD
ATOM     23  H   THR C   1     117.264  61.714  30.658  0.00  0.00    +0.000 HD
ATOM     24  H   TYR C   2     116.213  62.415  30.920  0.00  0.00    +0.000 HD
ATOM     25  H   TYR C   2     110.842  68.858  28.055  0.00  0.00    +0.000 HD
TER 
REMARK  Name = /data/user_data/xianyang/t3-aimnet-affinity-balanced/L1/Q6GI75/pocket.pdb
REMARK                            x       y       z     vdW  Elec       q    Type
REMARK                         _______ _______ _______ _____ _____    ______ ____
ATOM      1  N   VAL D   1     118.327  72.724  29.546  0.00  0.00    +0.000 N 
ATOM      2  CA  VAL D   1     116.929  73.164  29.395  0.00  0.00    +0.000 C 
ATOM      3  C   VAL D   1     116.614  74.158  30.542  0.00  0.00    +0.000 C 
ATOM      4  O   VAL D   1     117.028  73.960  31.683  0.00  0.00    +0.000 OA
ATOM      5  CB  VAL D   1     116.016  71.896  29.448  0.00  0.00    +0.000 C 
ATOM      6  CG2 VAL D   1     114.548  72.229  29.622  0.00  0.00    +0.000 C 
ATOM      7  CG1 VAL D   1     116.214  71.044  28.196  0.00  0.00    +0.000 C 
ATOM      8  N   GLN D   2     115.888  75.240  30.260  0.00  0.00    +0.000 N 
ATOM      9  CA  GLN D   2     115.657  76.251  31.296  0.00  0.00    +0.000 C 
ATOM     10  C   GLN D   2     114.913  75.663  32.504  0.00  0.00    +0.000 C 
ATOM     11  O   GLN D   2     114.019  74.825  32.345  0.00  0.00    +0.000 OA
ATOM     12  CB  GLN D   2     114.992  77.528  30.721  0.00  0.00    +0.000 C 
ATOM     13  CG  GLN D   2     113.764  77.311  29.894  0.00  0.00    +0.000 C 
ATOM     14  CD  GLN D   2     113.495  78.455  28.882  0.00  0.00    +0.000 C 
ATOM     15  OE1 GLN D   2     113.183  78.192  27.703  0.00  0.00    +0.000 OA
ATOM     16  NE2 GLN D   2     113.628  79.709  29.335  0.00  0.00    +0.000 N 
ATOM     17  N   ASN D   3     115.363  76.040  33.698  0.00  0.00    +0.000 N 
ATOM     18  CA  ASN D   3     114.813  75.578  34.978  0.00  0.00    +0.000 C 
ATOM     19  C   ASN D   3     115.104  74.152  35.396  0.00  0.00    +0.000 C 
ATOM     20  O   ASN D   3     115.025  73.848  36.584  0.00  0.00    +0.000 OA
ATOM     21  CB  ASN D   3     113.294  75.838  35.075  0.00  0.00    +0.000 C 
ATOM     22  CG  ASN D   3     112.969  77.303  35.036  0.00  0.00    +0.000 C 
ATOM     23  OD1 ASN D   3     113.582  78.100  35.751  0.00  0.00    +0.000 OA
ATOM     24  ND2 ASN D   3     112.010  77.676  34.190  0.00  0.00    +0.000 N 
ATOM     25  N   TYR D   4     115.448  73.274  34.459  0.00  0.00    +0.000 N 
ATOM     26  CA  TYR D   4     115.643  71.859  34.838  0.00  0.00    +0.000 C 
ATOM     27  C   TYR D   4     116.837  71.690  35.773  0.00  0.00    +0.000 C 
ATOM     28  O   TYR D   4     116.863  70.776  36.598  0.00  0.00    +0.000 OA
ATOM     29  CB  TYR D   4     115.804  70.978  33.609  0.00  0.00    +0.000 C 
ATOM     30  CG  TYR D   4     115.500  69.514  33.834  0.00  0.00    +0.000 A 
ATOM     31  CD2 TYR D   4     114.280  69.102  34.374  0.00  0.00    +0.000 A 
ATOM     32  CD1 TYR D   4     116.409  68.529  33.422  0.00  0.00    +0.000 A 
ATOM     33  CE2 TYR D   4     113.986  67.744  34.548  0.00  0.00    +0.000 A 
ATOM     34  CE1 TYR D   4     116.126  67.180  33.587  0.00  0.00    +0.000 A 
ATOM     35  CZ  TYR D   4     114.926  66.788  34.152  0.00  0.00    +0.000 A 
ATOM     36  OH  TYR D   4     114.663  65.447  34.280  0.00  0.00    +0.000 OA
ATOM     37  N   ASN D   5     117.823  72.577  35.610  0.00  0.00    +0.000 N 
ATOM     38  CA  ASN D   5     118.894  72.792  36.576  0.00  0.00    +0.000 C 
ATOM     39  C   ASN D   5     119.528  71.523  37.150  0.00  0.00    +0.000 C 
ATOM     40  O   ASN D   5     120.040  70.696  36.388  0.00  0.00    +0.000 OA
ATOM     41  CB  ASN D   5     118.421  73.788  37.676  0.00  0.00    +0.000 C 
ATOM     42  CG  ASN D   5     118.087  75.161  37.112  0.00  0.00    +0.000 C 
ATOM     43  OD1 ASN D   5     118.161  75.384  35.901  0.00  0.00    +0.000 OA
ATOM     44  ND2 ASN D   5     117.693  76.085  37.991  0.00  0.00    +0.000 N 
ATOM     45  H   VAL D   1     118.559  72.067  28.801  0.00  0.00    +0.000 HD
ATOM     46  H   VAL D   1     118.444  72.267  30.450  0.00  0.00    +0.000 HD
ATOM     47  H   VAL D   1     118.946  73.533  29.491  0.00  0.00    +0.000 HD
ATOM     48  H   GLN D   2     115.509  75.360  29.359  0.00  0.00    +0.000 HD
ATOM     49  H   GLN D   2     113.468  80.470  28.731  0.00  0.00    +0.000 HD
ATOM     50  H   GLN D   2     113.886  79.869  30.272  0.00  0.00    +0.000 HD
ATOM     51  H   ASN D   3     116.117  76.673  33.725  0.00  0.00    +0.000 HD
ATOM     52  H   ASN D   3     111.549  77.002  33.640  0.00  0.00    +0.000 HD
ATOM     53  H   ASN D   3     111.762  78.626  34.115  0.00  0.00    +0.000 HD
ATOM     54  H   TYR D   4     115.571  73.562  33.526  0.00  0.00    +0.000 HD
ATOM     55  H   TYR D   4     115.302  64.817  34.011  0.00  0.00    +0.000 HD
ATOM     56  H   ASN D   5     117.827  73.118  34.788  0.00  0.00    +0.000 HD
ATOM     57  H   ASN D   5     117.464  76.992  37.683  0.00  0.00    +0.000 HD
ATOM     58  H   ASN D   5     117.632  75.860  38.947  0.00  0.00    +0.000 HD
TER 
REMARK  Name = /data/user_data/xianyang/t3-aimnet-affinity-balanced/L1/Q6GI75/pocket.pdb
REMARK                            x       y       z     vdW  Elec       q    Type
REMARK                         _______ _______ _______ _____ _____    ______ ____
ATOM      1  N   MET E   1     118.349  68.788  38.120  0.00  0.00    +0.000 N 
ATOM      2  CA  MET E   1     117.829  67.530  37.551  0.00  0.00    +0.000 C 
ATOM      3  C   MET E   1     118.468  67.195  36.203  0.00  0.00    +0.000 C 
ATOM      4  O   MET E   1     118.590  66.020  35.839  0.00  0.00    +0.000 OA
ATOM      5  CB  MET E   1     116.297  67.537  37.411  0.00  0.00    +0.000 C 
ATOM      6  CG  MET E   1     115.541  67.131  38.688  0.00  0.00    +0.000 C 
ATOM      7  SD  MET E   1     116.013  65.524  39.382  0.00  0.00    +0.000 S 
ATOM      8  CE  MET E   1     116.034  64.454  37.946  0.00  0.00    +0.000 C 
ATOM      9  H   MET E   1     119.365  68.734  38.192  0.00  0.00    +0.000 HD
ATOM     10  H   MET E   1     117.949  68.933  39.047  0.00  0.00    +0.000 HD
ATOM     11  H   MET E   1     118.092  69.567  37.514  0.00  0.00    +0.000 HD
TER 
REMARK  Name = /data/user_data/xianyang/t3-aimnet-affinity-balanced/L1/Q6GI75/pocket.pdb
REMARK                            x       y       z     vdW  Elec       q    Type
REMARK                         _______ _______ _______ _____ _____    ______ ____
ATOM      1  N   LYS F   1     120.189  63.795  35.525  0.00  0.00    +0.000 N 
ATOM      2  CA  LYS F   1     119.881  62.920  34.382  0.00  0.00    +0.000 C 
ATOM      3  C   LYS F   1     121.117  62.600  33.518  0.00  0.00    +0.000 C 
ATOM      4  O   LYS F   1     121.237  61.495  32.990  0.00  0.00    +0.000 OA
ATOM      5  CB  LYS F   1     118.768  63.485  33.492  0.00  0.00    +0.000 C 
ATOM      6  CG  LYS F   1     117.384  63.481  34.137  0.00  0.00    +0.000 C 
ATOM      7  CD  LYS F   1     116.965  62.060  34.641  0.00  0.00    +0.000 C 
ATOM      8  CE  LYS F   1     115.462  62.061  35.030  0.00  0.00    +0.000 C 
ATOM      9  NZ  LYS F   1     114.955  60.697  35.456  0.00  0.00    +0.000 N 
ATOM     10  H   LYS F   1     119.337  63.971  36.058  0.00  0.00    +0.000 HD
ATOM     11  H   LYS F   1     120.566  64.679  35.184  0.00  0.00    +0.000 HD
ATOM     12  H   LYS F   1     120.877  63.341  36.125  0.00  0.00    +0.000 HD
ATOM     13  H   LYS F   1     115.047  60.042  34.679  0.00  0.00    +0.000 HD
ATOM     14  H   LYS F   1     113.974  60.768  35.727  0.00  0.00    +0.000 HD
ATOM     15  H   LYS F   1     115.503  60.363  36.249  0.00  0.00    +0.000 HD
TER 
REMARK  Name = /data/user_data/xianyang/t3-aimnet-affinity-balanced/L1/Q6GI75/pocket.pdb
REMARK                            x       y       z     vdW  Elec       q    Type
REMARK                         _______ _______ _______ _____ _____    ______ ____
ATOM      1  N   ALA G   1     111.934  60.209  27.728  0.00  0.00    +0.000 N 
ATOM      2  CA  ALA G   1     110.533  60.545  27.460  0.00  0.00    +0.000 C 
ATOM      3  C   ALA G   1     110.401  62.041  27.195  0.00  0.00    +0.000 C 
ATOM      4  O   ALA G   1     111.071  62.846  27.851  0.00  0.00    +0.000 OA
ATOM      5  CB  ALA G   1     109.658  60.126  28.648  0.00  0.00    +0.000 C 
ATOM      6  H   ALA G   1     112.509  60.491  26.934  0.00  0.00    +0.000 HD
ATOM      7  H   ALA G   1     112.021  59.203  27.871  0.00  0.00    +0.000 HD
ATOM      8  H   ALA G   1     112.247  60.700  28.566  0.00  0.00    +0.000 HD
TER 
REMARK  Name = /data/user_data/xianyang/t3-aimnet-affinity-balanced/L1/Q6GI75/pocket.pdb
REMARK                            x       y       z     vdW  Elec       q    Type
REMARK                         _______ _______ _______ _____ _____    ______ ____
ATOM      1  N   PRO H   1     108.079  65.528  27.460  0.00  0.00    +0.000 N 
ATOM      2  CA  PRO H   1     107.321  66.021  28.613  0.00  0.00    +0.000 C 
ATOM      3  C   PRO H   1     105.906  65.453  28.639  0.00  0.00    +0.000 C 
ATOM      4  O   PRO H   1     105.237  65.367  27.596  0.00  0.00    +0.000 OA
ATOM      5  CB  PRO H   1     107.319  67.554  28.409  0.00  0.00    +0.000 C 
ATOM      6  CG  PRO H   1     107.422  67.714  26.931  0.00  0.00    +0.000 C 
ATOM      7  CD  PRO H   1     108.432  66.615  26.530  0.00  0.00    +0.000 C 
ATOM      8  N   ILE H   2     105.495  65.046  29.831  0.00  0.00    +0.000 N 
ATOM      9  CA  ILE H   2     104.170  64.500  30.081  0.00  0.00    +0.000 C 
ATOM     10  C   ILE H   2     103.643  65.116  31.365  0.00  0.00    +0.000 C 
ATOM     11  O   ILE H   2     104.361  65.203  32.363  0.00  0.00    +0.000 OA
ATOM     12  CB  ILE H   2     104.215  62.950  30.204  0.00  0.00    +0.000 C 
ATOM     13  CG1 ILE H   2     104.819  62.314  28.940  0.00  0.00    +0.000 C 
ATOM     14  CG2 ILE H   2     102.796  62.377  30.443  0.00  0.00    +0.000 C 
ATOM     15  CD1 ILE H   2     105.060  60.779  29.039  0.00  0.00    +0.000 C 
ATOM     16  H   PRO H   1     108.936  65.087  27.793  0.00  0.00    +0.000 HD
ATOM     17  H   PRO H   1     107.493  64.860  26.958  0.00  0.00    +0.000 HD
ATOM     18  H   ILE H   2     106.120  65.117  30.588  0.00  0.00    +0.000 HD
TER 
REMARK  Name = /data/user_data/xianyang/t3-aimnet-affinity-balanced/L1/Q6GI75/pocket.pdb
REMARK                            x       y       z     vdW  Elec       q    Type
REMARK                         _______ _______ _______ _____ _____    ______ ____
ATOM      1  N   LEU I   1     102.468  64.024  38.098  0.00  0.00    +0.000 N 
ATOM      2  CA  LEU I   1     102.793  64.617  39.395  0.00  0.00    +0.000 C 
ATOM      3  C   LEU I   1     104.164  65.316  39.410  0.00  0.00    +0.000 C 
ATOM      4  O   LEU I   1     104.377  66.272  40.160  0.00  0.00    +0.000 OA
ATOM      5  CB  LEU I   1     102.759  63.533  40.470  0.00  0.00    +0.000 C 
ATOM      6  CG  LEU I   1     102.400  63.865  41.917  0.00  0.00    +0.000 C 
ATOM      7  CD1 LEU I   1     101.033  64.552  42.032  0.00  0.00    +0.000 C 
ATOM      8  CD2 LEU I   1     102.403  62.541  42.706  0.00  0.00    +0.000 C 
ATOM      9  N   SER I   2     105.096  64.855  38.585  0.00  0.00    +0.000 N 
ATOM     10  CA  SER I   2     106.416  65.503  38.549  0.00  0.00    +0.000 C 
ATOM     11  C   SER I   2     106.423  66.814  37.736  0.00  0.00    +0.000 C 
ATOM     12  O   SER I   2     107.446  67.495  37.645  0.00  0.00    +0.000 OA
ATOM     13  CB  SER I   2     107.495  64.519  38.110  0.00  0.00    +0.000 C 
ATOM     14  OG  SER I   2     107.595  63.482  39.076  0.00  0.00    +0.000 OA
ATOM     15  N   ALA I   3     105.278  67.169  37.160  0.00  0.00    +0.000 N 
ATOM     16  CA  ALA I   3     105.134  68.456  36.486  0.00  0.00    +0.000 C 
ATOM     17  C   ALA I   3     104.529  69.493  37.429  0.00  0.00    +0.000 C 
ATOM     18  O   ALA I   3     104.484  70.691  37.102  0.00  0.00    +0.000 OA
ATOM     19  CB  ALA I   3     104.289  68.311  35.222  0.00  0.00    +0.000 C 
ATOM     20  N   LYS I   4     104.087  69.035  38.605  0.00  0.00    +0.000 N 
ATOM     21  CA  LYS I   4     103.380  69.903  39.560  0.00  0.00    +0.000 C 
ATOM     22  C   LYS I   4     104.322  70.939  40.177  0.00  0.00    +0.000 C 
ATOM     23  O   LYS I   4     105.378  70.597  40.729  0.00  0.00    +0.000 OA
ATOM     24  CB  LYS I   4     102.658  69.078  40.639  0.00  0.00    +0.000 C 
ATOM     25  CG  LYS I   4     101.527  69.836  41.381  0.00  0.00    +0.000 C 
ATOM     26  CD  LYS I   4     100.782  68.928  42.383  0.00  0.00    +0.000 C 
ATOM     27  CE  LYS I   4     100.372  69.694  43.635  0.00  0.00    +0.000 C 
ATOM     28  NZ  LYS I   4     100.146  68.771  44.804  0.00  0.00    +0.000 N 
ATOM     29  H   LEU I   1     102.490  64.747  37.379  0.00  0.00    +0.000 HD
ATOM     30  H   LEU I   1     101.536  63.611  38.137  0.00  0.00    +0.000 HD
ATOM     31  H   LEU I   1     103.151  63.300  37.874  0.00  0.00    +0.000 HD
ATOM     32  H   SER I   2     104.905  64.085  38.002  0.00  0.00    +0.000 HD
ATOM     33  H   SER I   2     107.827  63.864  39.937  0.00  0.00    +0.000 HD
ATOM     34  H   ALA I   3     104.512  66.551  37.189  0.00  0.00    +0.000 HD
ATOM     35  H   LYS I   4     104.239  68.091  38.838  0.00  0.00    +0.000 HD
ATOM     36  H   LYS I   4      99.393  68.120  44.583  0.00  0.00    +0.000 HD
ATOM     37  H   LYS I   4      99.891  69.319  45.626  0.00  0.00    +0.000 HD
ATOM     38  H   LYS I   4     101.001  68.249  44.995  0.00  0.00    +0.000 HD
TER 
REMARK  Name = /data/user_data/xianyang/t3-aimnet-affinity-balanced/L1/Q6GI75/pocket.pdb
REMARK                            x       y       z     vdW  Elec       q    Type
REMARK                         _______ _______ _______ _____ _____    ______ ____
ATOM      1  N   VAL J   1     105.956  73.089  38.402  0.00  0.00    +0.000 N 
ATOM      2  CA  VAL J   1     106.869  73.484  37.324  0.00  0.00    +0.000 C 
ATOM      3  C   VAL J   1     106.235  74.586  36.479  0.00  0.00    +0.000 C 
ATOM      4  O   VAL J   1     105.306  74.340  35.707  0.00  0.00    +0.000 OA
ATOM      5  CB  VAL J   1     107.260  72.275  36.420  0.00  0.00    +0.000 C 
ATOM      6  CG1 VAL J   1     108.105  72.722  35.217  0.00  0.00    +0.000 C 
ATOM      7  CG2 VAL J   1     107.994  71.204  37.236  0.00  0.00    +0.000 C 
ATOM      8  N   GLY J   2     106.739  75.807  36.634  0.00  0.00    +0.000 N 
ATOM      9  CA  GLY J   2     106.194  76.942  35.888  0.00  0.00    +0.000 C 
ATOM     10  C   GLY J   2     106.440  76.800  34.401  0.00  0.00    +0.000 C 
ATOM     11  O   GLY J   2     107.485  76.292  33.972  0.00  0.00    +0.000 OA
ATOM     12  H   VAL J   1     106.388  72.353  38.961  0.00  0.00    +0.000 HD
ATOM     13  H   VAL J   1     105.084  72.744  38.000  0.00  0.00    +0.000 HD
ATOM     14  H   VAL J   1     105.761  73.896  38.995  0.00  0.00    +0.000 HD
ATOM     15  H   GLY J   2     107.487  75.949  37.258  0.00  0.00    +0.000 HD
TER 
REMARK  Name = /data/user_data/xianyang/t3-aimnet-affinity-balanced/L1/Q6GI75/pocket.pdb
REMARK                            x       y       z     vdW  Elec       q    Type
REMARK                         _______ _______ _______ _____ _____    ______ ____
ATOM      1  N   PHE K   1     104.982  74.881  32.306  0.00  0.00    +0.000 N 
ATOM      2  CA  PHE K   1     104.895  73.516  31.783  0.00  0.00    +0.000 C 
ATOM      3  C   PHE K   1     104.019  73.454  30.521  0.00  0.00    +0.000 C 
ATOM      4  O   PHE K   1     104.352  72.745  29.554  0.00  0.00    +0.000 OA
ATOM      5  CB  PHE K   1     104.431  72.509  32.843  0.00  0.00    +0.000 C 
ATOM      6  CG  PHE K   1     104.744  71.077  32.481  0.00  0.00    +0.000 A 
ATOM      7  CD1 PHE K   1     103.809  70.300  31.812  0.00  0.00    +0.000 A 
ATOM      8  CD2 PHE K   1     105.986  70.515  32.805  0.00  0.00    +0.000 A 
ATOM      9  CE1 PHE K   1     104.096  68.970  31.453  0.00  0.00    +0.000 A 
ATOM     10  CE2 PHE K   1     106.287  69.183  32.463  0.00  0.00    +0.000 A 
ATOM     11  CZ  PHE K   1     105.338  68.419  31.772  0.00  0.00    +0.000 A 
ATOM     12  H   PHE K   1     105.293  75.510  31.566  0.00  0.00    +0.000 HD
ATOM     13  H   PHE K   1     105.649  74.908  33.077  0.00  0.00    +0.000 HD
ATOM     14  H   PHE K   1     104.064  75.177  32.639  0.00  0.00    +0.000 HD
TER 
REMARK  Name = /data/user_data/xianyang/t3-aimnet-affinity-balanced/L1/Q6GI75/pocket.pdb
REMARK                            x       y       z     vdW  Elec       q    Type
REMARK                         _______ _______ _______ _____ _____    ______ ____
ATOM      1  N   ILE L   1     106.075  74.358  27.565  0.00  0.00    +0.000 N 
ATOM      2  CA  ILE L   1     106.910  73.229  27.109  0.00  0.00    +0.000 C 
ATOM      3  C   ILE L   1     106.086  72.303  26.200  0.00  0.00    +0.000 C 
ATOM      4  O   ILE L   1     106.531  71.934  25.093  0.00  0.00    +0.000 OA
ATOM      5  CB  ILE L   1     107.455  72.460  28.321  0.00  0.00    +0.000 C 
ATOM      6  CG1 ILE L   1     108.301  73.404  29.201  0.00  0.00    +0.000 C 
ATOM      7  CG2 ILE L   1     108.239  71.200  27.879  0.00  0.00    +0.000 C 
ATOM      8  CD1 ILE L   1     108.794  72.786  30.508  0.00  0.00    +0.000 C 
ATOM      9  H   ILE L   1     105.716  74.864  26.755  0.00  0.00    +0.000 HD
ATOM     10  H   ILE L   1     106.637  74.987  28.138  0.00  0.00    +0.000 HD
ATOM     11  H   ILE L   1     105.294  74.002  28.117  0.00  0.00    +0.000 HD
TER 
