REMARK  Name = /data/user_data/xianyang/t3-aimnet-affinity-balanced/L1/P62937/pocket.pdb
REMARK                            x       y       z     vdW  Elec       q    Type
REMARK                         _______ _______ _______ _____ _____    ______ ____
ATOM      1  N   HIS A   1      49.718  44.747  40.622  0.00  0.00    +0.000 N 
ATOM      2  CA  HIS A   1      50.137  46.125  40.377  0.00  0.00    +0.000 C 
ATOM      3  C   HIS A   1      51.100  46.697  41.414  0.00  0.00    +0.000 C 
ATOM      4  O   HIS A   1      51.723  47.733  41.175  0.00  0.00    +0.000 OA
ATOM      5  CB  HIS A   1      48.930  47.041  40.250  0.00  0.00    +0.000 C 
ATOM      6  CG  HIS A   1      48.068  47.092  41.473  0.00  0.00    +0.000 C 
ATOM      7  ND1 HIS A   1      47.108  46.142  41.749  0.00  0.00    +0.000 NA
ATOM      8  CD2 HIS A   1      48.026  47.979  42.494  0.00  0.00    +0.000 C 
ATOM      9  CE1 HIS A   1      46.493  46.458  42.874  0.00  0.00    +0.000 C 
ATOM     10  NE2 HIS A   1      47.032  47.567  43.349  0.00  0.00    +0.000 NA
ATOM     11  N   ARG A   2      51.225  46.041  42.557  0.00  0.00    +0.000 N 
ATOM     12  CA  ARG A   2      52.099  46.553  43.604  0.00  0.00    +0.000 C 
ATOM     13  C   ARG A   2      52.794  45.402  44.322  0.00  0.00    +0.000 C 
ATOM     14  O   ARG A   2      52.145  44.576  44.973  0.00  0.00    +0.000 OA
ATOM     15  CB  ARG A   2      51.291  47.401  44.587  0.00  0.00    +0.000 C 
ATOM     16  CG  ARG A   2      52.126  48.140  45.633  0.00  0.00    +0.000 C 
ATOM     17  CD  ARG A   2      51.299  49.004  46.570  0.00  0.00    +0.000 C 
ATOM     18  NE  ARG A   2      50.561  50.026  45.829  0.00  0.00    +0.000 N 
ATOM     19  CZ  ARG A   2      49.272  50.307  45.988  0.00  0.00    +0.000 C 
ATOM     20  NH1 ARG A   2      48.709  51.250  45.246  0.00  0.00    +0.000 N 
ATOM     21  NH2 ARG A   2      48.545  49.674  46.898  0.00  0.00    +0.000 N 
ATOM     22  H   HIS A   1      49.080  44.449  39.884  0.00  0.00    +0.000 HD
ATOM     23  H   HIS A   1      49.245  44.691  41.524  0.00  0.00    +0.000 HD
ATOM     24  H   HIS A   1      50.537  44.139  40.629  0.00  0.00    +0.000 HD
ATOM     25  H   ARG A   2      50.726  45.205  42.700  0.00  0.00    +0.000 HD
ATOM     26  H   ARG A   2      51.059  50.548  45.159  0.00  0.00    +0.000 HD
ATOM     27  H   ARG A   2      49.241  51.726  44.568  0.00  0.00    +0.000 HD
ATOM     28  H   ARG A   2      47.759  51.475  45.373  0.00  0.00    +0.000 HD
ATOM     29  H   ARG A   2      47.591  49.892  47.005  0.00  0.00    +0.000 HD
ATOM     30  H   ARG A   2      48.959  48.985  47.467  0.00  0.00    +0.000 HD
TER 
REMARK  Name = /data/user_data/xianyang/t3-aimnet-affinity-balanced/L1/P62937/pocket.pdb
REMARK                            x       y       z     vdW  Elec       q    Type
REMARK                         _______ _______ _______ _____ _____    ______ ____
ATOM      1  N   ILE B   1      56.052  44.886  46.881  0.00  0.00    +0.000 N 
ATOM      2  CA  ILE B   1      57.070  45.471  47.741  0.00  0.00    +0.000 C 
ATOM      3  C   ILE B   1      57.833  44.312  48.365  0.00  0.00    +0.000 C 
ATOM      4  O   ILE B   1      57.302  43.576  49.197  0.00  0.00    +0.000 OA
ATOM      5  CB  ILE B   1      56.419  46.366  48.810  0.00  0.00    +0.000 C 
ATOM      6  CG1 ILE B   1      55.663  47.509  48.129  0.00  0.00    +0.000 C 
ATOM      7  CG2 ILE B   1      57.481  46.917  49.754  0.00  0.00    +0.000 C 
ATOM      8  CD1 ILE B   1      54.830  48.359  49.055  0.00  0.00    +0.000 C 
ATOM      9  N   PRO B   2      59.080  44.110  47.952  0.00  0.00    +0.000 N 
ATOM     10  CA  PRO B   2      59.862  42.997  48.489  0.00  0.00    +0.000 C 
ATOM     11  C   PRO B   2      59.971  43.032  50.010  0.00  0.00    +0.000 C 
ATOM     12  O   PRO B   2      60.167  44.107  50.602  0.00  0.00    +0.000 OA
ATOM     13  CB  PRO B   2      61.233  43.192  47.835  0.00  0.00    +0.000 C 
ATOM     14  CG  PRO B   2      60.954  43.950  46.612  0.00  0.00    +0.000 C 
ATOM     15  CD  PRO B   2      59.830  44.863  46.932  0.00  0.00    +0.000 C 
ATOM     16  N   GLY B   3      59.823  41.859  50.622  0.00  0.00    +0.000 N 
ATOM     17  CA  GLY B   3      59.885  41.717  52.068  0.00  0.00    +0.000 C 
ATOM     18  C   GLY B   3      58.587  42.049  52.778  0.00  0.00    +0.000 C 
ATOM     19  O   GLY B   3      58.503  41.994  54.006  0.00  0.00    +0.000 OA
ATOM     20  N   PHE B   4      57.558  42.379  52.007  0.00  0.00    +0.000 N 
ATOM     21  CA  PHE B   4      56.282  42.784  52.582  0.00  0.00    +0.000 C 
ATOM     22  C   PHE B   4      55.112  42.004  51.970  0.00  0.00    +0.000 C 
ATOM     23  O   PHE B   4      54.575  41.105  52.607  0.00  0.00    +0.000 OA
ATOM     24  CB  PHE B   4      56.113  44.303  52.404  0.00  0.00    +0.000 C 
ATOM     25  CG  PHE B   4      54.839  44.871  52.972  0.00  0.00    +0.000 A 
ATOM     26  CD1 PHE B   4      54.385  46.117  52.542  0.00  0.00    +0.000 A 
ATOM     27  CD2 PHE B   4      54.109  44.202  53.933  0.00  0.00    +0.000 A 
ATOM     28  CE1 PHE B   4      53.226  46.649  53.045  0.00  0.00    +0.000 A 
ATOM     29  CE2 PHE B   4      52.937  44.744  54.447  0.00  0.00    +0.000 A 
ATOM     30  CZ  PHE B   4      52.504  45.976  54.003  0.00  0.00    +0.000 A 
ATOM     31  N   MET B   5      54.724  42.338  50.746  0.00  0.00    +0.000 N 
ATOM     32  CA  MET B   5      53.546  41.702  50.140  0.00  0.00    +0.000 C 
ATOM     33  C   MET B   5      53.435  41.945  48.642  0.00  0.00    +0.000 C 
ATOM     34  O   MET B   5      54.090  42.828  48.089  0.00  0.00    +0.000 OA
ATOM     35  CB  MET B   5      52.270  42.208  50.823  0.00  0.00    +0.000 C 
ATOM     36  CG  MET B   5      52.059  43.702  50.715  0.00  0.00    +0.000 C 
ATOM     37  SD  MET B   5      51.075  44.194  49.277  0.00  0.00    +0.000 S 
ATOM     38  CE  MET B   5      51.949  45.621  48.716  0.00  0.00    +0.000 C 
ATOM     39  H   ILE B   1      56.498  44.296  46.179  0.00  0.00    +0.000 HD
ATOM     40  H   ILE B   1      55.529  45.630  46.418  0.00  0.00    +0.000 HD
ATOM     41  H   ILE B   1      55.415  44.322  47.443  0.00  0.00    +0.000 HD
ATOM     42  H   GLY B   3      59.665  41.056  50.074  0.00  0.00    +0.000 HD
ATOM     43  H   PHE B   4      57.659  42.350  51.028  0.00  0.00    +0.000 HD
ATOM     44  H   MET B   5      55.228  43.016  50.241  0.00  0.00    +0.000 HD
TER 
REMARK  Name = /data/user_data/xianyang/t3-aimnet-affinity-balanced/L1/P62937/pocket.pdb
REMARK                            x       y       z     vdW  Elec       q    Type
REMARK                         _______ _______ _______ _____ _____    ______ ____
ATOM      1  N   GLN C   1      50.408  42.623  45.836  0.00  0.00    +0.000 N 
ATOM      2  CA  GLN C   1      49.013  43.041  45.749  0.00  0.00    +0.000 C 
ATOM      3  C   GLN C   1      48.492  43.003  44.316  0.00  0.00    +0.000 C 
ATOM      4  O   GLN C   1      49.163  43.444  43.396  0.00  0.00    +0.000 OA
ATOM      5  CB  GLN C   1      48.861  44.464  46.289  0.00  0.00    +0.000 C 
ATOM      6  CG  GLN C   1      47.426  44.982  46.359  0.00  0.00    +0.000 C 
ATOM      7  CD  GLN C   1      47.308  46.336  47.032  0.00  0.00    +0.000 C 
ATOM      8  OE1 GLN C   1      48.216  46.754  47.750  0.00  0.00    +0.000 OA
ATOM      9  NE2 GLN C   1      46.193  47.024  46.803  0.00  0.00    +0.000 N 
ATOM     10  H   GLN C   1      50.502  41.674  45.474  0.00  0.00    +0.000 HD
ATOM     11  H   GLN C   1      50.710  42.647  46.810  0.00  0.00    +0.000 HD
ATOM     12  H   GLN C   1      50.988  43.256  45.284  0.00  0.00    +0.000 HD
ATOM     13  H   GLN C   1      45.494  46.648  46.221  0.00  0.00    +0.000 HD
ATOM     14  H   GLN C   1      46.067  47.909  47.216  0.00  0.00    +0.000 HD
TER 
REMARK  Name = /data/user_data/xianyang/t3-aimnet-affinity-balanced/L1/P62937/pocket.pdb
REMARK                            x       y       z     vdW  Elec       q    Type
REMARK                         _______ _______ _______ _____ _____    ______ ____
ATOM      1  N   ARG D   1      39.785  48.567  36.294  0.00  0.00    +0.000 N 
ATOM      2  CA  ARG D   1      40.503  49.764  35.851  0.00  0.00    +0.000 C 
ATOM      3  C   ARG D   1      41.957  49.459  35.498  0.00  0.00    +0.000 C 
ATOM      4  O   ARG D   1      42.597  50.225  34.780  0.00  0.00    +0.000 OA
ATOM      5  CB  ARG D   1      40.426  50.860  36.916  0.00  0.00    +0.000 C 
ATOM      6  CG  ARG D   1      39.002  51.328  37.246  0.00  0.00    +0.000 C 
ATOM      7  CD  ARG D   1      38.952  52.390  38.337  0.00  0.00    +0.000 C 
ATOM      8  NE  ARG D   1      37.599  52.839  38.672  0.00  0.00    +0.000 N 
ATOM      9  CZ  ARG D   1      37.217  53.221  39.890  0.00  0.00    +0.000 C 
ATOM     10  NH2 ARG D   1      38.081  53.201  40.902  0.00  0.00    +0.000 N 
ATOM     11  NH1 ARG D   1      35.967  53.621  40.102  0.00  0.00    +0.000 N 
ATOM     12  H   ARG D   1      39.846  47.848  35.573  0.00  0.00    +0.000 HD
ATOM     13  H   ARG D   1      38.806  48.800  36.460  0.00  0.00    +0.000 HD
ATOM     14  H   ARG D   1      40.203  48.220  37.157  0.00  0.00    +0.000 HD
ATOM     15  H   ARG D   1      36.929  52.860  37.951  0.00  0.00    +0.000 HD
ATOM     16  H   ARG D   1      39.008  52.906  40.752  0.00  0.00    +0.000 HD
ATOM     17  H   ARG D   1      37.793  53.481  41.801  0.00  0.00    +0.000 HD
ATOM     18  H   ARG D   1      35.323  53.638  39.358  0.00  0.00    +0.000 HD
ATOM     19  H   ARG D   1      35.686  53.900  41.003  0.00  0.00    +0.000 HD
TER 
REMARK  Name = /data/user_data/xianyang/t3-aimnet-affinity-balanced/L1/P62937/pocket.pdb
REMARK                            x       y       z     vdW  Elec       q    Type
REMARK                         _______ _______ _______ _____ _____    ______ ____
ATOM      1  N   GLY E   1      45.159  49.933  39.673  0.00  0.00    +0.000 N 
ATOM      2  CA  GLY E   1      45.236  49.885  41.124  0.00  0.00    +0.000 C 
ATOM      3  C   GLY E   1      44.106  50.537  41.899  0.00  0.00    +0.000 C 
ATOM      4  O   GLY E   1      44.104  50.492  43.123  0.00  0.00    +0.000 OA
ATOM      5  N   THR E   2      43.143  51.151  41.222  0.00  0.00    +0.000 N 
ATOM      6  CA  THR E   2      42.059  51.800  41.954  0.00  0.00    +0.000 C 
ATOM      7  C   THR E   2      40.726  51.086  41.810  0.00  0.00    +0.000 C 
ATOM      8  O   THR E   2      39.760  51.469  42.461  0.00  0.00    +0.000 OA
ATOM      9  CB  THR E   2      41.866  53.265  41.497  0.00  0.00    +0.000 C 
ATOM     10  OG1 THR E   2      41.491  53.308  40.114  0.00  0.00    +0.000 OA
ATOM     11  CG2 THR E   2      43.166  54.040  41.567  0.00  0.00    +0.000 C 
ATOM     12  N   GLY E   3      40.670  50.058  40.966  0.00  0.00    +0.000 N 
ATOM     13  CA  GLY E   3      39.408  49.395  40.671  0.00  0.00    +0.000 C 
ATOM     14  C   GLY E   3      39.180  48.047  41.325  0.00  0.00    +0.000 C 
ATOM     15  O   GLY E   3      39.812  47.696  42.321  0.00  0.00    +0.000 OA
ATOM     16  H   GLY E   1      45.972  49.464  39.274  0.00  0.00    +0.000 HD
ATOM     17  H   GLY E   1      45.143  50.905  39.365  0.00  0.00    +0.000 HD
ATOM     18  H   GLY E   1      44.308  49.464  39.362  0.00  0.00    +0.000 HD
ATOM     19  H   THR E   2      43.160  51.169  40.238  0.00  0.00    +0.000 HD
ATOM     20  H   THR E   2      42.197  52.918  39.575  0.00  0.00    +0.000 HD
ATOM     21  H   GLY E   3      41.496  49.741  40.534  0.00  0.00    +0.000 HD
TER 
REMARK  Name = /data/user_data/xianyang/t3-aimnet-affinity-balanced/L1/P62937/pocket.pdb
REMARK                            x       y       z     vdW  Elec       q    Type
REMARK                         _______ _______ _______ _____ _____    ______ ____
ATOM      1  N   MET F   1      42.534  40.737  52.438  0.00  0.00    +0.000 N 
ATOM      2  CA  MET F   1      41.869  41.714  51.580  0.00  0.00    +0.000 C 
ATOM      3  C   MET F   1      42.431  43.129  51.697  0.00  0.00    +0.000 C 
ATOM      4  O   MET F   1      42.574  43.664  52.796  0.00  0.00    +0.000 OA
ATOM      5  CB  MET F   1      40.374  41.785  51.926  0.00  0.00    +0.000 C 
ATOM      6  CG  MET F   1      39.571  40.537  51.615  0.00  0.00    +0.000 C 
ATOM      7  SD  MET F   1      39.578  40.161  49.852  0.00  0.00    +0.000 S 
ATOM      8  CE  MET F   1      38.626  41.495  49.159  0.00  0.00    +0.000 C 
ATOM      9  N   ALA F   2      42.724  43.738  50.550  0.00  0.00    +0.000 N 
ATOM     10  CA  ALA F   2      43.076  45.150  50.491  0.00  0.00    +0.000 C 
ATOM     11  C   ALA F   2      41.785  45.954  50.579  0.00  0.00    +0.000 C 
ATOM     12  O   ALA F   2      40.727  45.449  50.237  0.00  0.00    +0.000 OA
ATOM     13  CB  ALA F   2      43.790  45.453  49.203  0.00  0.00    +0.000 C 
ATOM     14  N   ASN F   3      41.869  47.197  51.036  0.00  0.00    +0.000 N 
ATOM     15  CA  ASN F   3      40.683  48.024  51.162  0.00  0.00    +0.000 C 
ATOM     16  C   ASN F   3      41.044  49.506  51.208  0.00  0.00    +0.000 C 
ATOM     17  O   ASN F   3      42.215  49.870  51.196  0.00  0.00    +0.000 OA
ATOM     18  CB  ASN F   3      39.855  47.606  52.379  0.00  0.00    +0.000 C 
ATOM     19  CG  ASN F   3      40.575  47.833  53.693  0.00  0.00    +0.000 C 
ATOM     20  OD1 ASN F   3      41.022  48.940  53.994  0.00  0.00    +0.000 OA
ATOM     21  ND2 ASN F   3      40.694  46.776  54.491  0.00  0.00    +0.000 N 
ATOM     22  N   ALA F   4      40.020  50.349  51.209  0.00  0.00    +0.000 N 
ATOM     23  CA  ALA F   4      40.213  51.798  51.269  0.00  0.00    +0.000 C 
ATOM     24  C   ALA F   4      39.525  52.357  52.508  0.00  0.00    +0.000 C 
ATOM     25  O   ALA F   4      39.002  53.498  52.501  0.00  0.00    +0.000 OA
ATOM     26  CB  ALA F   4      39.681  52.452  50.022  0.00  0.00    +0.000 C 
ATOM     27  N   GLY F   5      39.548  51.570  53.577  0.00  0.00    +0.000 N 
ATOM     28  CA  GLY F   5      38.923  51.936  54.835  0.00  0.00    +0.000 C 
ATOM     29  C   GLY F   5      37.937  50.867  55.250  0.00  0.00    +0.000 C 
ATOM     30  O   GLY F   5      37.729  49.897  54.522  0.00  0.00    +0.000 OA
ATOM     31  H   MET F   1      43.525  40.696  52.202  0.00  0.00    +0.000 HD
ATOM     32  H   MET F   1      42.113  39.819  52.297  0.00  0.00    +0.000 HD
ATOM     33  H   MET F   1      42.428  41.014  53.414  0.00  0.00    +0.000 HD
ATOM     34  H   ALA F   2      42.702  43.217  49.715  0.00  0.00    +0.000 HD
ATOM     35  H   ASN F   3      42.746  47.563  51.293  0.00  0.00    +0.000 HD
ATOM     36  H   ASN F   3      40.323  45.907  54.215  0.00  0.00    +0.000 HD
ATOM     37  H   ASN F   3      41.153  46.863  55.358  0.00  0.00    +0.000 HD
ATOM     38  H   ALA F   4      39.104  49.990  51.168  0.00  0.00    +0.000 HD
ATOM     39  H   GLY F   5      40.008  50.702  53.514  0.00  0.00    +0.000 HD
TER 
REMARK  Name = /data/user_data/xianyang/t3-aimnet-affinity-balanced/L1/P62937/pocket.pdb
REMARK                            x       y       z     vdW  Elec       q    Type
REMARK                         _______ _______ _______ _____ _____    ______ ____
ATOM      1  N   GLN G   1      40.402  43.456  45.377  0.00  0.00    +0.000 N 
ATOM      2  CA  GLN G   1      41.845  43.520  45.563  0.00  0.00    +0.000 C 
ATOM      3  C   GLN G   1      42.262  42.759  46.811  0.00  0.00    +0.000 C 
ATOM      4  O   GLN G   1      41.581  42.787  47.828  0.00  0.00    +0.000 OA
ATOM      5  CB  GLN G   1      42.326  44.964  45.610  0.00  0.00    +0.000 C 
ATOM      6  CG  GLN G   1      42.243  45.651  44.268  0.00  0.00    +0.000 C 
ATOM      7  CD  GLN G   1      43.018  46.953  44.221  0.00  0.00    +0.000 C 
ATOM      8  OE1 GLN G   1      44.127  47.035  44.749  0.00  0.00    +0.000 OA
ATOM      9  NE2 GLN G   1      42.456  47.964  43.556  0.00  0.00    +0.000 N 
ATOM     10  H   GLN G   1      40.144  43.972  44.536  0.00  0.00    +0.000 HD
ATOM     11  H   GLN G   1      39.936  43.869  46.185  0.00  0.00    +0.000 HD
ATOM     12  H   GLN G   1      40.115  42.482  45.280  0.00  0.00    +0.000 HD
ATOM     13  H   GLN G   1      41.566  47.852  43.150  0.00  0.00    +0.000 HD
ATOM     14  H   GLN G   1      42.931  48.822  43.471  0.00  0.00    +0.000 HD
TER 
REMARK  Name = /data/user_data/xianyang/t3-aimnet-affinity-balanced/L1/P62937/pocket.pdb
REMARK                            x       y       z     vdW  Elec       q    Type
REMARK                         _______ _______ _______ _____ _____    ______ ____
ATOM      1  N   PHE H   1      46.045  40.810  48.838  0.00  0.00    +0.000 N 
ATOM      2  CA  PHE H   1      47.493  40.786  48.870  0.00  0.00    +0.000 C 
ATOM      3  C   PHE H   1      47.956  39.490  49.524  0.00  0.00    +0.000 C 
ATOM      4  O   PHE H   1      47.222  38.883  50.301  0.00  0.00    +0.000 OA
ATOM      5  CB  PHE H   1      48.090  42.038  49.527  0.00  0.00    +0.000 C 
ATOM      6  CG  PHE H   1      47.678  42.261  50.957  0.00  0.00    +0.000 A 
ATOM      7  CD1 PHE H   1      46.472  42.873  51.258  0.00  0.00    +0.000 A 
ATOM      8  CD2 PHE H   1      48.507  41.888  52.004  0.00  0.00    +0.000 A 
ATOM      9  CE1 PHE H   1      46.099  43.080  52.574  0.00  0.00    +0.000 A 
ATOM     10  CE2 PHE H   1      48.131  42.097  53.321  0.00  0.00    +0.000 A 
ATOM     11  CZ  PHE H   1      46.931  42.689  53.603  0.00  0.00    +0.000 A 
ATOM     12  H   PHE H   1      45.701  39.959  48.393  0.00  0.00    +0.000 HD
ATOM     13  H   PHE H   1      45.730  41.622  48.307  0.00  0.00    +0.000 HD
ATOM     14  H   PHE H   1      45.685  40.866  49.791  0.00  0.00    +0.000 HD
TER 
REMARK  Name = /data/user_data/xianyang/t3-aimnet-affinity-balanced/L1/P62937/pocket.pdb
REMARK                            x       y       z     vdW  Elec       q    Type
REMARK                         _______ _______ _______ _____ _____    ______ ____
ATOM      1  N   ALA I   1      55.846  38.132  54.702  0.00  0.00    +0.000 N 
ATOM      2  CA  ALA I   1      56.410  38.258  56.040  0.00  0.00    +0.000 C 
ATOM      3  C   ALA I   1      55.267  38.401  57.043  0.00  0.00    +0.000 C 
ATOM      4  O   ALA I   1      54.114  38.579  56.649  0.00  0.00    +0.000 OA
ATOM      5  CB  ALA I   1      57.332  39.469  56.112  0.00  0.00    +0.000 C 
ATOM      6  N   LYS I   2      55.579  38.315  58.333  0.00  0.00    +0.000 N 
ATOM      7  CA  LYS I   2      54.594  38.605  59.359  0.00  0.00    +0.000 C 
ATOM      8  C   LYS I   2      54.325  40.103  59.346  0.00  0.00    +0.000 C 
ATOM      9  O   LYS I   2      55.266  40.897  59.325  0.00  0.00    +0.000 OA
ATOM     10  CB  LYS I   2      55.088  38.183  60.736  0.00  0.00    +0.000 C 
ATOM     11  CG  LYS I   2      54.078  38.487  61.818  0.00  0.00    +0.000 C 
ATOM     12  CD  LYS I   2      54.251  37.620  63.047  0.00  0.00    +0.000 C 
ATOM     13  CE  LYS I   2      55.205  38.239  64.020  0.00  0.00    +0.000 C 
ATOM     14  NZ  LYS I   2      56.589  38.283  63.467  0.00  0.00    +0.000 N 
ATOM     15  N   THR I   3      53.050  40.495  59.369  0.00  0.00    +0.000 N 
ATOM     16  CA  THR I   3      52.691  41.917  59.261  0.00  0.00    +0.000 C 
ATOM     17  C   THR I   3      51.639  42.279  60.299  0.00  0.00    +0.000 C 
ATOM     18  O   THR I   3      50.475  42.537  59.978  0.00  0.00    +0.000 OA
ATOM     19  CB  THR I   3      52.171  42.223  57.853  0.00  0.00    +0.000 C 
ATOM     20  OG1 THR I   3      51.072  41.352  57.542  0.00  0.00    +0.000 OA
ATOM     21  CG2 THR I   3      53.216  41.898  56.796  0.00  0.00    +0.000 C 
ATOM     22  N   GLU I   4      52.065  42.309  61.556  0.00  0.00    +0.000 N 
ATOM     23  CA  GLU I   4      51.169  42.553  62.687  0.00  0.00    +0.000 C 
ATOM     24  C   GLU I   4      50.323  43.816  62.616  0.00  0.00    +0.000 C 
ATOM     25  O   GLU I   4      49.178  43.813  63.060  0.00  0.00    +0.000 OA
ATOM     26  CB  GLU I   4      51.983  42.641  63.981  0.00  0.00    +0.000 C 
ATOM     27  CG  GLU I   4      52.801  41.420  64.338  0.00  0.00    +0.000 C 
ATOM     28  CD  GLU I   4      53.510  41.624  65.661  0.00  0.00    +0.000 C 
ATOM     29  OE2 GLU I   4      52.816  41.956  66.652  0.00  0.00    +0.000 OA
ATOM     30  OE1 GLU I   4      54.754  41.484  65.705  0.00  0.00    +0.000 OA
ATOM     31  N   TRP I   5      50.885  44.904  62.102  0.00  0.00    +0.000 N 
ATOM     32  CA  TRP I   5      50.165  46.183  62.071  0.00  0.00    +0.000 C 
ATOM     33  C   TRP I   5      48.845  46.086  61.305  0.00  0.00    +0.000 C 
ATOM     34  O   TRP I   5      47.923  46.842  61.555  0.00  0.00    +0.000 OA
ATOM     35  CB  TRP I   5      51.047  47.307  61.480  0.00  0.00    +0.000 C 
ATOM     36  CG  TRP I   5      50.510  48.683  61.753  0.00  0.00    +0.000 C 
ATOM     37  CD1 TRP I   5      50.721  49.439  62.874  0.00  0.00    +0.000 C 
ATOM     38  CD2 TRP I   5      49.678  49.472  60.895  0.00  0.00    +0.000 A 
ATOM     39  NE1 TRP I   5      50.054  50.637  62.772  0.00  0.00    +0.000 NA
ATOM     40  CE2 TRP I   5      49.407  50.685  61.564  0.00  0.00    +0.000 A 
ATOM     41  CE3 TRP I   5      49.111  49.270  59.633  0.00  0.00    +0.000 A 
ATOM     42  CZ2 TRP I   5      48.611  51.691  61.007  0.00  0.00    +0.000 A 
ATOM     43  CZ3 TRP I   5      48.320  50.267  59.087  0.00  0.00    +0.000 A 
ATOM     44  CH2 TRP I   5      48.078  51.460  59.773  0.00  0.00    +0.000 A 
ATOM     45  N   LEU I   6      48.762  45.143  60.372  0.00  0.00    +0.000 N 
ATOM     46  CA  LEU I   6      47.578  44.974  59.545  0.00  0.00    +0.000 C 
ATOM     47  C   LEU I   6      46.440  44.260  60.252  0.00  0.00    +0.000 C 
ATOM     48  O   LEU I   6      45.309  44.306  59.783  0.00  0.00    +0.000 OA
ATOM     49  CB  LEU I   6      47.946  44.219  58.262  0.00  0.00    +0.000 C 
ATOM     50  CG  LEU I   6      49.053  44.856  57.420  0.00  0.00    +0.000 C 
ATOM     51  CD1 LEU I   6      49.287  44.064  56.150  0.00  0.00    +0.000 C 
ATOM     52  CD2 LEU I   6      48.717  46.285  57.068  0.00  0.00    +0.000 C 
ATOM     53  H   ALA I   1      56.601  38.036  54.023  0.00  0.00    +0.000 HD
ATOM     54  H   ALA I   1      55.297  38.964  54.485  0.00  0.00    +0.000 HD
ATOM     55  H   ALA I   1      55.246  37.308  54.662  0.00  0.00    +0.000 HD
ATOM     56  H   LYS I   2      56.490  38.051  58.596  0.00  0.00    +0.000 HD
ATOM     57  H   LYS I   2      56.909  37.334  63.276  0.00  0.00    +0.000 HD
ATOM     58  H   LYS I   2      57.212  38.722  64.145  0.00  0.00    +0.000 HD
ATOM     59  H   LYS I   2      56.593  38.824  62.602  0.00  0.00    +0.000 HD
ATOM     60  H   THR I   3      52.338  39.821  59.460  0.00  0.00    +0.000 HD
ATOM     61  H   THR I   3      51.373  40.430  57.565  0.00  0.00    +0.000 HD
ATOM     62  H   GLU I   4      53.022  42.161  61.734  0.00  0.00    +0.000 HD
ATOM     63  H   TRP I   5      51.798  44.852  61.736  0.00  0.00    +0.000 HD
ATOM     64  H   LEU I   6      49.527  44.539  60.236  0.00  0.00    +0.000 HD
TER 
REMARK  Name = /data/user_data/xianyang/t3-aimnet-affinity-balanced/L1/P62937/pocket.pdb
REMARK                            x       y       z     vdW  Elec       q    Type
REMARK                         _______ _______ _______ _____ _____    ______ ____
ATOM      1  N   LYS J   1      42.575  45.440  60.576  0.00  0.00    +0.000 N 
ATOM      2  CA  LYS J   1      42.327  46.414  59.512  0.00  0.00    +0.000 C 
ATOM      3  C   LYS J   1      42.033  45.742  58.167  0.00  0.00    +0.000 C 
ATOM      4  O   LYS J   1      41.336  46.311  57.322  0.00  0.00    +0.000 OA
ATOM      5  CB  LYS J   1      43.526  47.351  59.353  0.00  0.00    +0.000 C 
ATOM      6  CG  LYS J   1      43.950  48.013  60.647  0.00  0.00    +0.000 C 
ATOM      7  CD  LYS J   1      45.207  48.849  60.468  0.00  0.00    +0.000 C 
ATOM      8  CE  LYS J   1      45.694  49.443  61.785  0.00  0.00    +0.000 C 
ATOM      9  NZ  LYS J   1      46.178  48.431  62.759  0.00  0.00    +0.000 N 
ATOM     10  N   HIS J   2      42.587  44.543  57.983  0.00  0.00    +0.000 N 
ATOM     11  CA  HIS J   2      42.418  43.766  56.755  0.00  0.00    +0.000 C 
ATOM     12  C   HIS J   2      41.923  42.374  57.097  0.00  0.00    +0.000 C 
ATOM     13  O   HIS J   2      42.419  41.757  58.033  0.00  0.00    +0.000 OA
ATOM     14  CB  HIS J   2      43.747  43.692  55.997  0.00  0.00    +0.000 C 
ATOM     15  CG  HIS J   2      44.252  45.031  55.561  0.00  0.00    +0.000 C 
ATOM     16  ND1 HIS J   2      43.849  45.623  54.388  0.00  0.00    +0.000 NA
ATOM     17  CD2 HIS J   2      45.100  45.908  56.157  0.00  0.00    +0.000 C 
ATOM     18  CE1 HIS J   2      44.423  46.810  54.278  0.00  0.00    +0.000 C 
ATOM     19  NE2 HIS J   2      45.198  47.001  55.335  0.00  0.00    +0.000 NA
ATOM     20  H   LYS J   1      41.767  44.824  60.668  0.00  0.00    +0.000 HD
ATOM     21  H   LYS J   1      42.731  45.931  61.457  0.00  0.00    +0.000 HD
ATOM     22  H   LYS J   1      43.400  44.886  60.345  0.00  0.00    +0.000 HD
ATOM     23  H   LYS J   1      45.412  47.806  63.009  0.00  0.00    +0.000 HD
ATOM     24  H   LYS J   1      46.520  48.902  63.597  0.00  0.00    +0.000 HD
ATOM     25  H   LYS J   1      46.935  47.890  62.340  0.00  0.00    +0.000 HD
ATOM     26  H   HIS J   2      43.135  44.163  58.707  0.00  0.00    +0.000 HD
TER 
REMARK  Name = /data/user_data/xianyang/t3-aimnet-affinity-balanced/L1/P62937/pocket.pdb
REMARK                            x       y       z     vdW  Elec       q    Type
REMARK                         _______ _______ _______ _____ _____    ______ ____
ATOM      1  N   ARG K   1      60.733  49.439  46.163  0.00  0.00    +0.000 N 
ATOM      2  CA  ARG K   1      60.276  50.173  47.352  0.00  0.00    +0.000 C 
ATOM      3  C   ARG K   1      58.865  50.703  47.224  0.00  0.00    +0.000 C 
ATOM      4  O   ARG K   1      58.026  50.518  48.104  0.00  0.00    +0.000 OA
ATOM      5  CB  ARG K   1      61.162  51.396  47.593  0.00  0.00    +0.000 C 
ATOM      6  CG  ARG K   1      62.452  51.135  48.283  0.00  0.00    +0.000 C 
ATOM      7  CD  ARG K   1      63.023  52.398  48.922  0.00  0.00    +0.000 C 
ATOM      8  NE  ARG K   1      64.307  52.156  49.571  0.00  0.00    +0.000 N 
ATOM      9  CZ  ARG K   1      64.825  52.924  50.523  0.00  0.00    +0.000 C 
ATOM     10  NH2 ARG K   1      65.999  52.615  51.051  0.00  0.00    +0.000 N 
ATOM     11  NH1 ARG K   1      64.171  54.000  50.954  0.00  0.00    +0.000 N 
ATOM     12  H   ARG K   1      60.134  48.627  46.014  0.00  0.00    +0.000 HD
ATOM     13  H   ARG K   1      61.695  49.131  46.303  0.00  0.00    +0.000 HD
ATOM     14  H   ARG K   1      60.687  50.050  45.348  0.00  0.00    +0.000 HD
ATOM     15  H   ARG K   1      64.825  51.370  49.284  0.00  0.00    +0.000 HD
ATOM     16  H   ARG K   1      66.487  51.820  50.736  0.00  0.00    +0.000 HD
ATOM     17  H   ARG K   1      66.384  53.180  51.759  0.00  0.00    +0.000 HD
ATOM     18  H   ARG K   1      63.298  54.234  50.565  0.00  0.00    +0.000 HD
ATOM     19  H   ARG K   1      64.561  54.562  51.662  0.00  0.00    +0.000 HD
TER 
REMARK  Name = /data/user_data/xianyang/t3-aimnet-affinity-balanced/L1/P62937/pocket.pdb
REMARK                            x       y       z     vdW  Elec       q    Type
REMARK                         _______ _______ _______ _____ _____    ______ ____
ATOM      1  N   ASN L   1      48.246  61.772  49.336  0.00  0.00    +0.000 N 
ATOM      2  CA  ASN L   1      47.610  61.559  48.033  0.00  0.00    +0.000 C 
ATOM      3  C   ASN L   1      47.011  60.165  47.901  0.00  0.00    +0.000 C 
ATOM      4  O   ASN L   1      47.175  59.327  48.787  0.00  0.00    +0.000 OA
ATOM      5  CB  ASN L   1      48.604  61.841  46.898  0.00  0.00    +0.000 C 
ATOM      6  CG  ASN L   1      49.768  60.878  46.873  0.00  0.00    +0.000 C 
ATOM      7  OD1 ASN L   1      49.591  59.666  46.786  0.00  0.00    +0.000 OA
ATOM      8  ND2 ASN L   1      50.987  61.420  46.926  0.00  0.00    +0.000 N 
ATOM      9  N   ALA L   2      46.306  59.923  46.798  0.00  0.00    +0.000 N 
ATOM     10  CA  ALA L   2      45.704  58.615  46.543  0.00  0.00    +0.000 C 
ATOM     11  C   ALA L   2      46.251  58.022  45.245  0.00  0.00    +0.000 C 
ATOM     12  O   ALA L   2      45.519  57.383  44.478  0.00  0.00    +0.000 OA
ATOM     13  CB  ALA L   2      44.196  58.725  46.488  0.00  0.00    +0.000 C 
ATOM     14  N   GLY L   3      47.537  58.233  45.015  0.00  0.00    +0.000 N 
ATOM     15  CA  GLY L   3      48.211  57.751  43.828  0.00  0.00    +0.000 C 
ATOM     16  C   GLY L   3      48.869  58.892  43.091  0.00  0.00    +0.000 C 
ATOM     17  O   GLY L   3      48.697  60.059  43.460  0.00  0.00    +0.000 OA
ATOM     18  N   PRO L   4      49.616  58.575  42.045  0.00  0.00    +0.000 N 
ATOM     19  CA  PRO L   4      50.305  59.614  41.279  0.00  0.00    +0.000 C 
ATOM     20  C   PRO L   4      49.354  60.704  40.786  0.00  0.00    +0.000 C 
ATOM     21  O   PRO L   4      48.251  60.421  40.309  0.00  0.00    +0.000 OA
ATOM     22  CB  PRO L   4      50.934  58.840  40.112  0.00  0.00    +0.000 C 
ATOM     23  CG  PRO L   4      51.049  57.431  40.619  0.00  0.00    +0.000 C 
ATOM     24  CD  PRO L   4      49.850  57.230  41.499  0.00  0.00    +0.000 C 
ATOM     25  H   ASN L   1      48.631  62.716  49.376  0.00  0.00    +0.000 HD
ATOM     26  H   ASN L   1      48.997  61.093  49.463  0.00  0.00    +0.000 HD
ATOM     27  H   ASN L   1      47.553  61.655  50.076  0.00  0.00    +0.000 HD
ATOM     28  H   ASN L   1      51.784  60.842  46.913  0.00  0.00    +0.000 HD
ATOM     29  H   ASN L   1      51.089  62.398  46.978  0.00  0.00    +0.000 HD
ATOM     30  H   ALA L   2      46.187  60.643  46.137  0.00  0.00    +0.000 HD
ATOM     31  H   GLY L   3      48.058  58.739  45.680  0.00  0.00    +0.000 HD
TER 
REMARK  Name = /data/user_data/xianyang/t3-aimnet-affinity-balanced/L1/P62937/pocket.pdb
REMARK                            x       y       z     vdW  Elec       q    Type
REMARK                         _______ _______ _______ _____ _____    ______ ____
ATOM      1  N   TRP M   1      61.412  56.432  53.329  0.00  0.00    +0.000 N 
ATOM      2  CA  TRP M   1      60.662  55.523  52.456  0.00  0.00    +0.000 C 
ATOM      3  C   TRP M   1      59.633  56.255  51.589  0.00  0.00    +0.000 C 
ATOM      4  O   TRP M   1      59.252  55.774  50.511  0.00  0.00    +0.000 OA
ATOM      5  CB  TRP M   1      59.964  54.464  53.305  0.00  0.00    +0.000 C 
ATOM      6  CG  TRP M   1      59.629  53.201  52.591  0.00  0.00    +0.000 C 
ATOM      7  CD1 TRP M   1      58.427  52.862  52.045  0.00  0.00    +0.000 C 
ATOM      8  CD2 TRP M   1      60.501  52.084  52.359  0.00  0.00    +0.000 C 
ATOM      9  NE1 TRP M   1      58.497  51.607  51.488  0.00  0.00    +0.000 NA
ATOM     10  CE2 TRP M   1      59.757  51.105  51.673  0.00  0.00    +0.000 C 
ATOM     11  CE3 TRP M   1      61.835  51.809  52.673  0.00  0.00    +0.000 C 
ATOM     12  CZ2 TRP M   1      60.303  49.876  51.289  0.00  0.00    +0.000 C 
ATOM     13  CZ3 TRP M   1      62.380  50.586  52.288  0.00  0.00    +0.000 C 
ATOM     14  CH2 TRP M   1      61.612  49.639  51.606  0.00  0.00    +0.000 C 
ATOM     15  H   TRP M   1      61.879  57.140  52.762  0.00  0.00    +0.000 HD
ATOM     16  H   TRP M   1      62.109  55.902  53.853  0.00  0.00    +0.000 HD
ATOM     17  H   TRP M   1      60.770  56.886  53.979  0.00  0.00    +0.000 HD
TER 
REMARK  Name = /data/user_data/xianyang/t3-aimnet-affinity-balanced/L1/P62937/pocket.pdb
REMARK                            x       y       z     vdW  Elec       q    Type
REMARK                         _______ _______ _______ _____ _____    ______ ____
ATOM      1  N   LYS N   1      57.284  59.556  46.408  0.00  0.00    +0.000 N 
ATOM      2  CA  LYS N   1      55.865  59.219  46.403  0.00  0.00    +0.000 C 
ATOM      3  C   LYS N   1      55.013  60.410  46.849  0.00  0.00    +0.000 C 
ATOM      4  O   LYS N   1      53.894  60.593  46.367  0.00  0.00    +0.000 OA
ATOM      5  CB  LYS N   1      55.599  58.017  47.310  0.00  0.00    +0.000 C 
ATOM      6  CG  LYS N   1      54.149  57.559  47.326  0.00  0.00    +0.000 C 
ATOM      7  CD  LYS N   1      54.003  56.256  48.121  0.00  0.00    +0.000 C 
ATOM      8  CE  LYS N   1      52.548  55.846  48.264  0.00  0.00    +0.000 C 
ATOM      9  NZ  LYS N   1      51.867  55.610  46.945  0.00  0.00    +0.000 N 
ATOM     10  H   LYS N   1      57.445  60.358  45.799  0.00  0.00    +0.000 HD
ATOM     11  H   LYS N   1      57.824  58.759  46.070  0.00  0.00    +0.000 HD
ATOM     12  H   LYS N   1      57.575  59.786  47.358  0.00  0.00    +0.000 HD
ATOM     13  H   LYS N   1      52.330  54.844  46.455  0.00  0.00    +0.000 HD
ATOM     14  H   LYS N   1      51.920  56.457  46.379  0.00  0.00    +0.000 HD
ATOM     15  H   LYS N   1      50.889  55.369  47.106  0.00  0.00    +0.000 HD
TER 
