REMARK  Name = /data/user_data/xianyang/t3-aimnet-affinity-balanced/L3/Q9NPC1/pocket.pdb
REMARK                            x       y       z     vdW  Elec       q    Type
REMARK                         _______ _______ _______ _____ _____    ______ ____
ATOM      1  N   LEU A   1      27.286   1.887   3.677  0.00  0.00    +0.000 N 
ATOM      2  CA  LEU A   1      26.030   2.450   4.148  0.00  0.00    +0.000 C 
ATOM      3  C   LEU A   1      26.136   2.989   5.569  0.00  0.00    +0.000 C 
ATOM      4  O   LEU A   1      25.229   3.676   6.040  0.00  0.00    +0.000 OA
ATOM      5  CB  LEU A   1      24.915   1.404   4.065  0.00  0.00    +0.000 C 
ATOM      6  CG  LEU A   1      25.033   0.119   4.886  0.00  0.00    +0.000 C 
ATOM      7  CD2 LEU A   1      24.467   0.291   6.289  0.00  0.00    +0.000 C 
ATOM      8  CD1 LEU A   1      24.313  -1.014   4.166  0.00  0.00    +0.000 C 
ATOM      9  H   LEU A   1      27.167   1.540   2.725  0.00  0.00    +0.000 HD
ATOM     10  H   LEU A   1      27.564   1.118   4.287  0.00  0.00    +0.000 HD
ATOM     11  H   LEU A   1      28.007   2.608   3.689  0.00  0.00    +0.000 HD
TER 
REMARK  Name = /data/user_data/xianyang/t3-aimnet-affinity-balanced/L3/Q9NPC1/pocket.pdb
REMARK                            x       y       z     vdW  Elec       q    Type
REMARK                         _______ _______ _______ _____ _____    ______ ____
ATOM      1  N   LEU B   1      13.581   4.602  11.705  0.00  0.00    +0.000 N 
ATOM      2  CA  LEU B   1      13.271   3.241  12.123  0.00  0.00    +0.000 C 
ATOM      3  C   LEU B   1      12.565   3.220  13.472  0.00  0.00    +0.000 C 
ATOM      4  O   LEU B   1      11.628   2.445  13.675  0.00  0.00    +0.000 OA
ATOM      5  CB  LEU B   1      14.548   2.401  12.180  0.00  0.00    +0.000 C 
ATOM      6  CG  LEU B   1      15.179   2.030  10.841  0.00  0.00    +0.000 C 
ATOM      7  CD2 LEU B   1      16.552   1.413  11.057  0.00  0.00    +0.000 C 
ATOM      8  CD1 LEU B   1      14.272   1.078  10.072  0.00  0.00    +0.000 C 
ATOM      9  H   LEU B   1      14.052   4.581  10.801  0.00  0.00    +0.000 HD
ATOM     10  H   LEU B   1      14.191   5.039  12.396  0.00  0.00    +0.000 HD
ATOM     11  H   LEU B   1      12.717   5.139  11.626  0.00  0.00    +0.000 HD
TER 
REMARK  Name = /data/user_data/xianyang/t3-aimnet-affinity-balanced/L3/Q9NPC1/pocket.pdb
REMARK                            x       y       z     vdW  Elec       q    Type
REMARK                         _______ _______ _______ _____ _____    ______ ____
ATOM      1  N   ALA C   1       2.102  -7.600   6.129  0.00  0.00    +0.000 N 
ATOM      2  CA  ALA C   1       3.415  -7.397   5.531  0.00  0.00    +0.000 C 
ATOM      3  C   ALA C   1       4.174  -6.275   6.227  0.00  0.00    +0.000 C 
ATOM      4  O   ALA C   1       5.367  -6.406   6.514  0.00  0.00    +0.000 OA
ATOM      5  CB  ALA C   1       3.273  -7.101   4.041  0.00  0.00    +0.000 C 
ATOM      6  N   ASP C   2       3.493  -5.180   6.488  0.00  0.00    +0.000 N 
ATOM      7  CA  ASP C   2       4.144  -4.058   7.146  0.00  0.00    +0.000 C 
ATOM      8  C   ASP C   2       4.535  -4.396   8.580  0.00  0.00    +0.000 C 
ATOM      9  O   ASP C   2       5.619  -4.030   9.043  0.00  0.00    +0.000 OA
ATOM     10  CB  ASP C   2       3.233  -2.830   7.128  0.00  0.00    +0.000 C 
ATOM     11  CG  ASP C   2       3.072  -2.240   5.740  0.00  0.00    +0.000 C 
ATOM     12  OD1 ASP C   2       3.937  -2.495   4.876  0.00  0.00    +0.000 OA
ATOM     13  OD2 ASP C   2       2.086  -1.509   5.515  0.00  0.00    +0.000 OA
ATOM     14  H   ALA C   1       1.620  -8.356   5.642  0.00  0.00    +0.000 HD
ATOM     15  H   ALA C   1       1.556  -6.742   6.050  0.00  0.00    +0.000 HD
ATOM     16  H   ALA C   1       2.211  -7.844   7.113  0.00  0.00    +0.000 HD
ATOM     17  H   ASP C   2       2.543  -5.120   6.238  0.00  0.00    +0.000 HD
TER 
REMARK  Name = /data/user_data/xianyang/t3-aimnet-affinity-balanced/L3/Q9NPC1/pocket.pdb
REMARK                            x       y       z     vdW  Elec       q    Type
REMARK                         _______ _______ _______ _____ _____    ______ ____
ATOM      1  N   VAL D   1       7.735  -6.745   8.686  0.00  0.00    +0.000 N 
ATOM      2  CA  VAL D   1       9.014  -6.102   8.451  0.00  0.00    +0.000 C 
ATOM      3  C   VAL D   1       9.374  -5.163   9.599  0.00  0.00    +0.000 C 
ATOM      4  O   VAL D   1      10.554  -4.962   9.894  0.00  0.00    +0.000 OA
ATOM      5  CB  VAL D   1       9.010  -5.351   7.094  0.00  0.00    +0.000 C 
ATOM      6  CG2 VAL D   1       8.131  -4.120   7.156  0.00  0.00    +0.000 C 
ATOM      7  CG1 VAL D   1      10.429  -5.002   6.686  0.00  0.00    +0.000 C 
ATOM      8  H   VAL D   1       7.518  -7.366   7.906  0.00  0.00    +0.000 HD
ATOM      9  H   VAL D   1       7.007  -6.035   8.768  0.00  0.00    +0.000 HD
ATOM     10  H   VAL D   1       7.780  -7.286   9.549  0.00  0.00    +0.000 HD
TER 
REMARK  Name = /data/user_data/xianyang/t3-aimnet-affinity-balanced/L3/Q9NPC1/pocket.pdb
REMARK                            x       y       z     vdW  Elec       q    Type
REMARK                         _______ _______ _______ _____ _____    ______ ____
ATOM      1  N   PHE E   1      17.863  -3.575  12.893  0.00  0.00    +0.000 N 
ATOM      2  CA  PHE E   1      18.445  -2.512  12.087  0.00  0.00    +0.000 C 
ATOM      3  C   PHE E   1      18.849  -1.314  12.935  0.00  0.00    +0.000 C 
ATOM      4  O   PHE E   1      19.834  -0.638  12.623  0.00  0.00    +0.000 OA
ATOM      5  CB  PHE E   1      17.473  -2.095  10.986  0.00  0.00    +0.000 C 
ATOM      6  CG  PHE E   1      17.288  -3.150   9.935  0.00  0.00    +0.000 A 
ATOM      7  CD1 PHE E   1      18.328  -3.490   9.092  0.00  0.00    +0.000 A 
ATOM      8  CD2 PHE E   1      16.078  -3.804   9.791  0.00  0.00    +0.000 A 
ATOM      9  CE1 PHE E   1      18.170  -4.463   8.120  0.00  0.00    +0.000 A 
ATOM     10  CE2 PHE E   1      15.909  -4.780   8.823  0.00  0.00    +0.000 A 
ATOM     11  CZ  PHE E   1      16.956  -5.109   7.988  0.00  0.00    +0.000 A 
ATOM     12  H   PHE E   1      17.606  -4.357  12.290  0.00  0.00    +0.000 HD
ATOM     13  H   PHE E   1      17.031  -3.225  13.368  0.00  0.00    +0.000 HD
ATOM     14  H   PHE E   1      18.544  -3.888  13.585  0.00  0.00    +0.000 HD
TER 
REMARK  Name = /data/user_data/xianyang/t3-aimnet-affinity-balanced/L3/Q9NPC1/pocket.pdb
REMARK                            x       y       z     vdW  Elec       q    Type
REMARK                         _______ _______ _______ _____ _____    ______ ____
ATOM      1  N   PHE F   1      22.005  -2.317  14.319  0.00  0.00    +0.000 N 
ATOM      2  CA  PHE F   1      22.989  -2.302  13.245  0.00  0.00    +0.000 C 
ATOM      3  C   PHE F   1      23.520  -0.896  13.001  0.00  0.00    +0.000 C 
ATOM      4  O   PHE F   1      24.728  -0.688  12.870  0.00  0.00    +0.000 OA
ATOM      5  CB  PHE F   1      22.360  -2.875  11.982  0.00  0.00    +0.000 C 
ATOM      6  CG  PHE F   1      23.258  -2.870  10.780  0.00  0.00    +0.000 A 
ATOM      7  CD2 PHE F   1      24.598  -3.184  10.884  0.00  0.00    +0.000 A 
ATOM      8  CD1 PHE F   1      22.743  -2.558   9.526  0.00  0.00    +0.000 A 
ATOM      9  CE2 PHE F   1      25.418  -3.185   9.769  0.00  0.00    +0.000 A 
ATOM     10  CE1 PHE F   1      23.552  -2.560   8.413  0.00  0.00    +0.000 A 
ATOM     11  CZ  PHE F   1      24.895  -2.875   8.528  0.00  0.00    +0.000 A 
ATOM     12  N   LEU F   2      22.630   0.080  12.968  0.00  0.00    +0.000 N 
ATOM     13  CA  LEU F   2      23.047   1.445  12.688  0.00  0.00    +0.000 C 
ATOM     14  C   LEU F   2      23.775   2.075  13.867  0.00  0.00    +0.000 C 
ATOM     15  O   LEU F   2      24.766   2.786  13.685  0.00  0.00    +0.000 OA
ATOM     16  CB  LEU F   2      21.842   2.296  12.297  0.00  0.00    +0.000 C 
ATOM     17  CG  LEU F   2      21.154   1.930  10.982  0.00  0.00    +0.000 C 
ATOM     18  CD2 LEU F   2      19.948   2.823  10.744  0.00  0.00    +0.000 C 
ATOM     19  CD1 LEU F   2      22.133   2.022   9.821  0.00  0.00    +0.000 C 
ATOM     20  H   PHE F   1      21.669  -3.270  14.459  0.00  0.00    +0.000 HD
ATOM     21  H   PHE F   1      21.222  -1.713  14.071  0.00  0.00    +0.000 HD
ATOM     22  H   PHE F   1      22.436  -1.979  15.180  0.00  0.00    +0.000 HD
ATOM     23  H   LEU F   2      21.680  -0.118  13.134  0.00  0.00    +0.000 HD
TER 
REMARK  Name = /data/user_data/xianyang/t3-aimnet-affinity-balanced/L3/Q9NPC1/pocket.pdb
REMARK                            x       y       z     vdW  Elec       q    Type
REMARK                         _______ _______ _______ _____ _____    ______ ____
ATOM      1  N   TYR G   1      17.085  -9.484   5.039  0.00  0.00    +0.000 N 
ATOM      2  CA  TYR G   1      16.852  -8.607   3.900  0.00  0.00    +0.000 C 
ATOM      3  C   TYR G   1      15.927  -9.239   2.870  0.00  0.00    +0.000 C 
ATOM      4  O   TYR G   1      15.249  -8.525   2.131  0.00  0.00    +0.000 OA
ATOM      5  CB  TYR G   1      18.178  -8.207   3.261  0.00  0.00    +0.000 C 
ATOM      6  CG  TYR G   1      18.835  -7.053   3.978  0.00  0.00    +0.000 A 
ATOM      7  CD1 TYR G   1      18.491  -5.742   3.681  0.00  0.00    +0.000 A 
ATOM      8  CD2 TYR G   1      19.786  -7.274   4.969  0.00  0.00    +0.000 A 
ATOM      9  CE1 TYR G   1      19.087  -4.676   4.336  0.00  0.00    +0.000 A 
ATOM     10  CE2 TYR G   1      20.386  -6.216   5.631  0.00  0.00    +0.000 A 
ATOM     11  CZ  TYR G   1      20.033  -4.920   5.309  0.00  0.00    +0.000 A 
ATOM     12  OH  TYR G   1      20.627  -3.868   5.960  0.00  0.00    +0.000 OA
ATOM     13  H   TYR G   1      16.191  -9.744   5.457  0.00  0.00    +0.000 HD
ATOM     14  H   TYR G   1      17.655  -8.998   5.731  0.00  0.00    +0.000 HD
ATOM     15  H   TYR G   1      17.572 -10.324   4.727  0.00  0.00    +0.000 HD
ATOM     16  H   TYR G   1      20.389  -2.988   5.743  0.00  0.00    +0.000 HD
TER 
REMARK  Name = /data/user_data/xianyang/t3-aimnet-affinity-balanced/L3/Q9NPC1/pocket.pdb
REMARK                            x       y       z     vdW  Elec       q    Type
REMARK                         _______ _______ _______ _____ _____    ______ ____
ATOM      1  N   CYS H   1      12.651  -8.348   4.198  0.00  0.00    +0.000 N 
ATOM      2  CA  CYS H   1      12.406  -6.944   3.897  0.00  0.00    +0.000 C 
ATOM      3  C   CYS H   1      11.949  -6.759   2.455  0.00  0.00    +0.000 C 
ATOM      4  O   CYS H   1      10.976  -6.042   2.188  0.00  0.00    +0.000 OA
ATOM      5  CB  CYS H   1      13.671  -6.124   4.163  0.00  0.00    +0.000 C 
ATOM      6  SG  CYS H   1      14.104  -5.987   5.910  0.00  0.00    +0.000 S 
ATOM      7  N   ALA H   2      12.640  -7.394   1.531  0.00  0.00    +0.000 N 
ATOM      8  CA  ALA H   2      12.252  -7.283   0.134  0.00  0.00    +0.000 C 
ATOM      9  C   ALA H   2      10.908  -7.952  -0.121  0.00  0.00    +0.000 C 
ATOM     10  O   ALA H   2      10.108  -7.462  -0.925  0.00  0.00    +0.000 OA
ATOM     11  CB  ALA H   2      13.332  -7.892  -0.762  0.00  0.00    +0.000 C 
ATOM     12  H   CYS H   1      11.804  -8.887   4.018  0.00  0.00    +0.000 HD
ATOM     13  H   CYS H   1      12.914  -8.445   5.179  0.00  0.00    +0.000 HD
ATOM     14  H   CYS H   1      13.407  -8.695   3.608  0.00  0.00    +0.000 HD
ATOM     15  H   CYS H   1      13.109  -5.340   6.574  0.00  0.00    +0.000 HD
ATOM     16  H   ALA H   2      13.417  -7.942   1.785  0.00  0.00    +0.000 HD
TER 
REMARK  Name = /data/user_data/xianyang/t3-aimnet-affinity-balanced/L3/Q9NPC1/pocket.pdb
REMARK                            x       y       z     vdW  Elec       q    Type
REMARK                         _______ _______ _______ _____ _____    ______ ____
ATOM      1  N   SER I   1       8.435  -8.168   2.017  0.00  0.00    +0.000 N 
ATOM      2  CA  SER I   1       7.438  -7.231   2.512  0.00  0.00    +0.000 C 
ATOM      3  C   SER I   1       7.306  -6.025   1.594  0.00  0.00    +0.000 C 
ATOM      4  O   SER I   1       6.202  -5.503   1.403  0.00  0.00    +0.000 OA
ATOM      5  CB  SER I   1       7.794  -6.782   3.931  0.00  0.00    +0.000 C 
ATOM      6  OG  SER I   1       7.795  -7.887   4.820  0.00  0.00    +0.000 OA
ATOM      7  N   MET I   2       8.414  -5.583   1.034  0.00  0.00    +0.000 N 
ATOM      8  CA  MET I   2       8.366  -4.458   0.107  0.00  0.00    +0.000 C 
ATOM      9  C   MET I   2       7.523  -4.794  -1.117  0.00  0.00    +0.000 C 
ATOM     10  O   MET I   2       6.607  -4.039  -1.469  0.00  0.00    +0.000 OA
ATOM     11  CB  MET I   2       9.782  -4.062  -0.329  0.00  0.00    +0.000 C 
ATOM     12  CG  MET I   2       9.808  -2.995  -1.413  0.00  0.00    +0.000 C 
ATOM     13  SD  MET I   2      11.450  -2.724  -2.110  0.00  0.00    +0.000 S 
ATOM     14  CE  MET I   2      11.727  -4.267  -2.973  0.00  0.00    +0.000 C 
ATOM     15  H   SER I   1       8.187  -8.460   1.072  0.00  0.00    +0.000 HD
ATOM     16  H   SER I   1       8.467  -8.984   2.628  0.00  0.00    +0.000 HD
ATOM     17  H   SER I   1       9.350  -7.716   2.005  0.00  0.00    +0.000 HD
ATOM     18  H   SER I   1       6.912  -8.288   4.838  0.00  0.00    +0.000 HD
ATOM     19  H   MET I   2       9.275  -6.013   1.242  0.00  0.00    +0.000 HD
TER 
REMARK  Name = /data/user_data/xianyang/t3-aimnet-affinity-balanced/L3/Q9NPC1/pocket.pdb
REMARK                            x       y       z     vdW  Elec       q    Type
REMARK                         _______ _______ _______ _____ _____    ______ ____
ATOM      1  N   SER J   1       3.878  -5.256  -0.194  0.00  0.00    +0.000 N 
ATOM      2  CA  SER J   1       3.230  -3.972   0.041  0.00  0.00    +0.000 C 
ATOM      3  C   SER J   1       2.978  -3.230  -1.267  0.00  0.00    +0.000 C 
ATOM      4  O   SER J   1       1.920  -2.616  -1.449  0.00  0.00    +0.000 OA
ATOM      5  CB  SER J   1       4.083  -3.114   0.980  0.00  0.00    +0.000 C 
ATOM      6  OG  SER J   1       4.233  -3.742   2.240  0.00  0.00    +0.000 OA
ATOM      7  H   SER J   1       3.301  -5.818  -0.820  0.00  0.00    +0.000 HD
ATOM      8  H   SER J   1       3.994  -5.746   0.693  0.00  0.00    +0.000 HD
ATOM      9  H   SER J   1       4.792  -5.103  -0.620  0.00  0.00    +0.000 HD
ATOM     10  H   SER J   1       3.361  -3.862   2.647  0.00  0.00    +0.000 HD
TER 
REMARK  Name = /data/user_data/xianyang/t3-aimnet-affinity-balanced/L3/Q9NPC1/pocket.pdb
REMARK                            x       y       z     vdW  Elec       q    Type
REMARK                         _______ _______ _______ _____ _____    ______ ____
ATOM      1  N   ARG K   1      22.882 -10.032  -1.165  0.00  0.00    +0.000 N 
ATOM      2  CA  ARG K   1      23.208  -9.585   0.179  0.00  0.00    +0.000 C 
ATOM      3  C   ARG K   1      24.309 -10.455   0.755  0.00  0.00    +0.000 C 
ATOM      4  O   ARG K   1      24.225 -11.678   0.745  0.00  0.00    +0.000 OA
ATOM      5  CB  ARG K   1      21.983  -9.628   1.086  0.00  0.00    +0.000 C 
ATOM      6  CG  ARG K   1      21.033  -8.472   0.885  0.00  0.00    +0.000 C 
ATOM      7  CD  ARG K   1      21.613  -7.184   1.434  0.00  0.00    +0.000 C 
ATOM      8  NE  ARG K   1      20.766  -6.033   1.149  0.00  0.00    +0.000 N 
ATOM      9  CZ  ARG K   1      20.997  -4.805   1.587  0.00  0.00    +0.000 C 
ATOM     10  NH2 ARG K   1      22.063  -4.561   2.351  0.00  0.00    +0.000 N 
ATOM     11  NH1 ARG K   1      20.171  -3.825   1.260  0.00  0.00    +0.000 N 
ATOM     12  H   ARG K   1      23.718  -9.993  -1.748  0.00  0.00    +0.000 HD
ATOM     13  H   ARG K   1      22.163  -9.426  -1.560  0.00  0.00    +0.000 HD
ATOM     14  H   ARG K   1      22.536 -10.991  -1.130  0.00  0.00    +0.000 HD
ATOM     15  H   ARG K   1      19.967  -6.178   0.592  0.00  0.00    +0.000 HD
ATOM     16  H   ARG K   1      22.675  -5.294   2.591  0.00  0.00    +0.000 HD
ATOM     17  H   ARG K   1      22.238  -3.648   2.674  0.00  0.00    +0.000 HD
ATOM     18  H   ARG K   1      19.386  -4.011   0.696  0.00  0.00    +0.000 HD
ATOM     19  H   ARG K   1      20.341  -2.910   1.581  0.00  0.00    +0.000 HD
TER 
REMARK  Name = /data/user_data/xianyang/t3-aimnet-affinity-balanced/L3/Q9NPC1/pocket.pdb
REMARK                            x       y       z     vdW  Elec       q    Type
REMARK                         _______ _______ _______ _____ _____    ______ ____
ATOM      1  N   CYS L   1      26.204  -5.691   6.655  0.00  0.00    +0.000 N 
ATOM      2  CA  CYS L   1      25.336  -6.440   5.763  0.00  0.00    +0.000 C 
ATOM      3  C   CYS L   1      24.815  -5.492   4.692  0.00  0.00    +0.000 C 
ATOM      4  O   CYS L   1      23.973  -4.628   4.965  0.00  0.00    +0.000 OA
ATOM      5  CB  CYS L   1      24.183  -7.078   6.532  0.00  0.00    +0.000 C 
ATOM      6  SG  CYS L   1      22.983  -7.959   5.507  0.00  0.00    +0.000 S 
ATOM      7  N   GLN L   2      25.318  -5.644   3.486  0.00  0.00    +0.000 N 
ATOM      8  CA  GLN L   2      24.944  -4.758   2.389  0.00  0.00    +0.000 C 
ATOM      9  C   GLN L   2      25.028  -5.493   1.067  0.00  0.00    +0.000 C 
ATOM     10  O   GLN L   2      25.409  -6.663   1.005  0.00  0.00    +0.000 OA
ATOM     11  CB  GLN L   2      25.836  -3.511   2.367  0.00  0.00    +0.000 C 
ATOM     12  CG  GLN L   2      27.305  -3.802   2.194  0.00  0.00    +0.000 C 
ATOM     13  CD  GLN L   2      28.146  -2.536   2.226  0.00  0.00    +0.000 C 
ATOM     14  OE1 GLN L   2      27.627  -1.437   2.419  0.00  0.00    +0.000 OA
ATOM     15  NE2 GLN L   2      29.449  -2.684   2.039  0.00  0.00    +0.000 N 
ATOM     16  H   CYS L   1      26.965  -5.275   6.119  0.00  0.00    +0.000 HD
ATOM     17  H   CYS L   1      26.589  -6.318   7.361  0.00  0.00    +0.000 HD
ATOM     18  H   CYS L   1      25.667  -4.954   7.112  0.00  0.00    +0.000 HD
ATOM     19  H   CYS L   1      23.597  -9.000   4.883  0.00  0.00    +0.000 HD
ATOM     20  H   GLN L   2      25.961  -6.371   3.320  0.00  0.00    +0.000 HD
ATOM     21  H   GLN L   2      29.826  -3.581   1.888  0.00  0.00    +0.000 HD
ATOM     22  H   GLN L   2      30.041  -1.897   2.051  0.00  0.00    +0.000 HD
TER 
REMARK  Name = /data/user_data/xianyang/t3-aimnet-affinity-balanced/L3/Q9NPC1/pocket.pdb
REMARK                            x       y       z     vdW  Elec       q    Type
REMARK                         _______ _______ _______ _____ _____    ______ ____
ATOM      1  N   GLU M   1      14.781  -3.534  -9.700  0.00  0.00    +0.000 N 
ATOM      2  CA  GLU M   1      14.035  -3.304  -8.471  0.00  0.00    +0.000 C 
ATOM      3  C   GLU M   1      13.239  -2.004  -8.553  0.00  0.00    +0.000 C 
ATOM      4  O   GLU M   1      12.072  -1.956  -8.153  0.00  0.00    +0.000 OA
ATOM      5  CB  GLU M   1      14.982  -3.273  -7.269  0.00  0.00    +0.000 C 
ATOM      6  CG  GLU M   1      14.268  -3.132  -5.934  0.00  0.00    +0.000 C 
ATOM      7  CD  GLU M   1      15.222  -3.043  -4.760  0.00  0.00    +0.000 C 
ATOM      8  OE1 GLU M   1      16.064  -2.126  -4.743  0.00  0.00    +0.000 OA
ATOM      9  OE2 GLU M   1      15.130  -3.894  -3.855  0.00  0.00    +0.000 OA
ATOM     10  H   GLU M   1      14.137  -3.552 -10.491  0.00  0.00    +0.000 HD
ATOM     11  H   GLU M   1      15.269  -4.427  -9.639  0.00  0.00    +0.000 HD
ATOM     12  H   GLU M   1      15.460  -2.784  -9.831  0.00  0.00    +0.000 HD
TER 
REMARK  Name = /data/user_data/xianyang/t3-aimnet-affinity-balanced/L3/Q9NPC1/pocket.pdb
REMARK                            x       y       z     vdW  Elec       q    Type
REMARK                         _______ _______ _______ _____ _____    ______ ____
ATOM      1  N   TRP N   1       8.685   6.273  -0.812  0.00  0.00    +0.000 N 
ATOM      2  CA  TRP N   1       9.536   5.343  -1.543  0.00  0.00    +0.000 C 
ATOM      3  C   TRP N   1      10.391   6.017  -2.604  0.00  0.00    +0.000 C 
ATOM      4  O   TRP N   1      11.333   5.408  -3.111  0.00  0.00    +0.000 OA
ATOM      5  CB  TRP N   1       8.692   4.242  -2.186  0.00  0.00    +0.000 C 
ATOM      6  CG  TRP N   1       8.352   3.147  -1.229  0.00  0.00    +0.000 C 
ATOM      7  CD1 TRP N   1       7.184   2.996  -0.540  0.00  0.00    +0.000 C 
ATOM      8  CD2 TRP N   1       9.189   2.057  -0.845  0.00  0.00    +0.000 A 
ATOM      9  NE1 TRP N   1       7.241   1.872   0.253  0.00  0.00    +0.000 NA
ATOM     10  CE2 TRP N   1       8.456   1.279   0.079  0.00  0.00    +0.000 A 
ATOM     11  CE3 TRP N   1      10.480   1.664  -1.199  0.00  0.00    +0.000 A 
ATOM     12  CZ2 TRP N   1       8.983   0.126   0.652  0.00  0.00    +0.000 A 
ATOM     13  CZ3 TRP N   1      10.994   0.518  -0.627  0.00  0.00    +0.000 A 
ATOM     14  CH2 TRP N   1      10.247  -0.239   0.287  0.00  0.00    +0.000 A 
ATOM     15  H   TRP N   1       9.261   7.001  -0.389  0.00  0.00    +0.000 HD
ATOM     16  H   TRP N   1       8.182   5.770  -0.081  0.00  0.00    +0.000 HD
ATOM     17  H   TRP N   1       8.017   6.699  -1.454  0.00  0.00    +0.000 HD
TER 
REMARK  Name = /data/user_data/xianyang/t3-aimnet-affinity-balanced/L3/Q9NPC1/pocket.pdb
REMARK                            x       y       z     vdW  Elec       q    Type
REMARK                         _______ _______ _______ _____ _____    ______ ____
ATOM      1  N   TYR O   1      14.269   6.249  -1.789  0.00  0.00    +0.000 N 
ATOM      2  CA  TYR O   1      14.936   4.957  -1.858  0.00  0.00    +0.000 C 
ATOM      3  C   TYR O   1      15.259   4.586  -3.297  0.00  0.00    +0.000 C 
ATOM      4  O   TYR O   1      16.381   4.174  -3.612  0.00  0.00    +0.000 OA
ATOM      5  CB  TYR O   1      14.066   3.884  -1.208  0.00  0.00    +0.000 C 
ATOM      6  CG  TYR O   1      14.593   2.482  -1.373  0.00  0.00    +0.000 A 
ATOM      7  CD2 TYR O   1      15.561   1.970  -0.520  0.00  0.00    +0.000 A 
ATOM      8  CD1 TYR O   1      14.111   1.659  -2.385  0.00  0.00    +0.000 A 
ATOM      9  CE2 TYR O   1      16.042   0.677  -0.666  0.00  0.00    +0.000 A 
ATOM     10  CE1 TYR O   1      14.585   0.366  -2.539  0.00  0.00    +0.000 A 
ATOM     11  CZ  TYR O   1      15.547  -0.119  -1.679  0.00  0.00    +0.000 A 
ATOM     12  OH  TYR O   1      16.016  -1.400  -1.831  0.00  0.00    +0.000 OA
ATOM     13  H   TYR O   1      14.857   6.959  -2.225  0.00  0.00    +0.000 HD
ATOM     14  H   TYR O   1      14.106   6.496  -0.813  0.00  0.00    +0.000 HD
ATOM     15  H   TYR O   1      13.377   6.198  -2.281  0.00  0.00    +0.000 HD
ATOM     16  H   TYR O   1      15.682  -1.943  -2.518  0.00  0.00    +0.000 HD
TER 
REMARK  Name = /data/user_data/xianyang/t3-aimnet-affinity-balanced/L3/Q9NPC1/pocket.pdb
REMARK                            x       y       z     vdW  Elec       q    Type
REMARK                         _______ _______ _______ _____ _____    ______ ____
ATOM      1  N   ARG P   1      22.179   5.257   1.805  0.00  0.00    +0.000 N 
ATOM      2  CA  ARG P   1      21.175   4.203   1.771  0.00  0.00    +0.000 C 
ATOM      3  C   ARG P   1      20.513   3.987   3.123  0.00  0.00    +0.000 C 
ATOM      4  O   ARG P   1      19.334   3.627   3.177  0.00  0.00    +0.000 OA
ATOM      5  CB  ARG P   1      21.793   2.892   1.288  0.00  0.00    +0.000 C 
ATOM      6  CG  ARG P   1      22.209   2.891  -0.163  0.00  0.00    +0.000 C 
ATOM      7  CD  ARG P   1      22.153   1.488  -0.726  0.00  0.00    +0.000 C 
ATOM      8  NE  ARG P   1      20.782   0.975  -0.793  0.00  0.00    +0.000 N 
ATOM      9  CZ  ARG P   1      19.986   1.104  -1.849  0.00  0.00    +0.000 C 
ATOM     10  NH1 ARG P   1      20.420   1.721  -2.935  0.00  0.00    +0.000 N 
ATOM     11  NH2 ARG P   1      18.752   0.610  -1.817  0.00  0.00    +0.000 N 
ATOM     12  N   ALA P   2      21.244   4.187   4.207  0.00  0.00    +0.000 N 
ATOM     13  CA  ALA P   2      20.661   3.954   5.520  0.00  0.00    +0.000 C 
ATOM     14  C   ALA P   2      19.454   4.857   5.758  0.00  0.00    +0.000 C 
ATOM     15  O   ALA P   2      18.399   4.397   6.209  0.00  0.00    +0.000 OA
ATOM     16  CB  ALA P   2      21.713   4.164   6.606  0.00  0.00    +0.000 C 
ATOM     17  H   ARG P   1      22.592   5.363   0.878  0.00  0.00    +0.000 HD
ATOM     18  H   ARG P   1      22.907   5.012   2.476  0.00  0.00    +0.000 HD
ATOM     19  H   ARG P   1      21.741   6.135   2.084  0.00  0.00    +0.000 HD
ATOM     20  H   ARG P   1      20.428   0.504  -0.004  0.00  0.00    +0.000 HD
ATOM     21  H   ARG P   1      19.829   1.816  -3.717  0.00  0.00    +0.000 HD
ATOM     22  H   ARG P   1      21.334   2.086  -2.962  0.00  0.00    +0.000 HD
ATOM     23  H   ARG P   1      18.163   0.706  -2.600  0.00  0.00    +0.000 HD
ATOM     24  H   ARG P   1      18.427   0.148  -1.010  0.00  0.00    +0.000 HD
ATOM     25  H   ALA P   2      22.177   4.492   4.126  0.00  0.00    +0.000 HD
TER 
REMARK  Name = /data/user_data/xianyang/t3-aimnet-affinity-balanced/L3/Q9NPC1/pocket.pdb
REMARK                            x       y       z     vdW  Elec       q    Type
REMARK                         _______ _______ _______ _____ _____    ______ ____
ATOM      1  N   THR Q   1      16.590   4.099   2.981  0.00  0.00    +0.000 N 
ATOM      2  CA  THR Q   1      15.964   2.812   3.229  0.00  0.00    +0.000 C 
ATOM      3  C   THR Q   1      15.086   2.873   4.473  0.00  0.00    +0.000 C 
ATOM      4  O   THR Q   1      13.991   2.301   4.500  0.00  0.00    +0.000 OA
ATOM      5  CB  THR Q   1      17.028   1.720   3.379  0.00  0.00    +0.000 C 
ATOM      6  OG1 THR Q   1      17.868   1.704   2.223  0.00  0.00    +0.000 OA
ATOM      7  CG2 THR Q   1      16.368   0.365   3.534  0.00  0.00    +0.000 C 
ATOM      8  N   ALA Q   2      15.548   3.554   5.505  0.00  0.00    +0.000 N 
ATOM      9  CA  ALA Q   2      14.742   3.704   6.706  0.00  0.00    +0.000 C 
ATOM     10  C   ALA Q   2      13.498   4.542   6.443  0.00  0.00    +0.000 C 
ATOM     11  O   ALA Q   2      12.448   4.305   7.048  0.00  0.00    +0.000 OA
ATOM     12  CB  ALA Q   2      15.575   4.324   7.824  0.00  0.00    +0.000 C 
ATOM     13  H   THR Q   1      17.173   4.038   2.146  0.00  0.00    +0.000 HD
ATOM     14  H   THR Q   1      17.168   4.356   3.781  0.00  0.00    +0.000 HD
ATOM     15  H   THR Q   1      15.869   4.807   2.842  0.00  0.00    +0.000 HD
ATOM     16  H   THR Q   1      17.332   1.515   1.437  0.00  0.00    +0.000 HD
ATOM     17  H   ALA Q   2      16.443   3.962   5.461  0.00  0.00    +0.000 HD
TER 
REMARK  Name = /data/user_data/xianyang/t3-aimnet-affinity-balanced/L3/Q9NPC1/pocket.pdb
REMARK                            x       y       z     vdW  Elec       q    Type
REMARK                         _______ _______ _______ _____ _____    ______ ____
ATOM      1  N   ALA R   1      11.890   4.540   3.597  0.00  0.00    +0.000 N 
ATOM      2  CA  ALA R   1      11.003   3.562   2.984  0.00  0.00    +0.000 C 
ATOM      3  C   ALA R   1      10.428   2.620   4.033  0.00  0.00    +0.000 C 
ATOM      4  O   ALA R   1       9.259   2.227   3.953  0.00  0.00    +0.000 OA
ATOM      5  CB  ALA R   1      11.749   2.775   1.904  0.00  0.00    +0.000 C 
ATOM      6  N   PHE R   2      11.243   2.250   4.995  0.00  0.00    +0.000 N 
ATOM      7  CA  PHE R   2      10.766   1.449   6.120  0.00  0.00    +0.000 C 
ATOM      8  C   PHE R   2       9.627   2.147   6.853  0.00  0.00    +0.000 C 
ATOM      9  O   PHE R   2       8.683   1.507   7.327  0.00  0.00    +0.000 OA
ATOM     10  CB  PHE R   2      11.927   1.193   7.079  0.00  0.00    +0.000 C 
ATOM     11  CG  PHE R   2      12.011  -0.210   7.602  0.00  0.00    +0.000 A 
ATOM     12  CD1 PHE R   2      12.664  -1.188   6.875  0.00  0.00    +0.000 A 
ATOM     13  CD2 PHE R   2      11.450  -0.546   8.821  0.00  0.00    +0.000 A 
ATOM     14  CE1 PHE R   2      12.754  -2.481   7.356  0.00  0.00    +0.000 A 
ATOM     15  CE2 PHE R   2      11.532  -1.840   9.304  0.00  0.00    +0.000 A 
ATOM     16  CZ  PHE R   2      12.185  -2.807   8.570  0.00  0.00    +0.000 A 
ATOM     17  H   ALA R   1      12.263   5.159   2.877  0.00  0.00    +0.000 HD
ATOM     18  H   ALA R   1      12.659   4.057   4.062  0.00  0.00    +0.000 HD
ATOM     19  H   ALA R   1      11.370   5.089   4.281  0.00  0.00    +0.000 HD
ATOM     20  H   PHE R   2      12.190   2.517   4.957  0.00  0.00    +0.000 HD
TER 
REMARK  Name = /data/user_data/xianyang/t3-aimnet-affinity-balanced/L3/Q9NPC1/pocket.pdb
REMARK                            x       y       z     vdW  Elec       q    Type
REMARK                         _______ _______ _______ _____ _____    ______ ____
ATOM      1  N   SER S   1       7.344   3.829   5.633  0.00  0.00    +0.000 N 
ATOM      2  CA  SER S   1       6.085   3.695   4.919  0.00  0.00    +0.000 C 
ATOM      3  C   SER S   1       5.229   2.568   5.474  0.00  0.00    +0.000 C 
ATOM      4  O   SER S   1       4.015   2.556   5.268  0.00  0.00    +0.000 OA
ATOM      5  CB  SER S   1       6.339   3.461   3.427  0.00  0.00    +0.000 C 
ATOM      6  OG  SER S   1       6.901   2.188   3.196  0.00  0.00    +0.000 OA
ATOM      7  N   SER S   2       5.855   1.635   6.179  0.00  0.00    +0.000 N 
ATOM      8  CA  SER S   2       5.113   0.535   6.784  0.00  0.00    +0.000 C 
ATOM      9  C   SER S   2       4.317   0.961   8.008  0.00  0.00    +0.000 C 
ATOM     10  O   SER S   2       3.501   0.186   8.511  0.00  0.00    +0.000 OA
ATOM     11  CB  SER S   2       6.071  -0.593   7.165  0.00  0.00    +0.000 C 
ATOM     12  OG  SER S   2       6.776  -1.061   6.026  0.00  0.00    +0.000 OA
ATOM     13  H   SER S   1       7.884   4.594   5.229  0.00  0.00    +0.000 HD
ATOM     14  H   SER S   1       7.873   2.961   5.555  0.00  0.00    +0.000 HD
ATOM     15  H   SER S   1       7.158   4.027   6.616  0.00  0.00    +0.000 HD
ATOM     16  H   SER S   1       6.287   1.503   3.504  0.00  0.00    +0.000 HD
ATOM     17  H   SER S   2       6.831   1.686   6.295  0.00  0.00    +0.000 HD
ATOM     18  H   SER S   2       7.295  -0.335   5.646  0.00  0.00    +0.000 HD
TER 
