REMARK  Name = /home/xianyang/aimnet2_score_pipelines/work/L1234-fixed-receptor-eint-20260921/L4/Q6SZW1/prepared.pdb
REMARK                            x       y       z     vdW  Elec       q    Type
REMARK                         _______ _______ _______ _____ _____    ______ ____
ATOM      1  CH3 ACE A   1     -14.265 -19.229   3.134  0.00  0.00    +0.000 C 
ATOM      2  C   ACE A   1     -13.546 -20.039   4.219  0.00  0.00    +0.000 C 
ATOM      3  O   ACE A   1     -12.473 -20.599   3.981  0.00  0.00    +0.000 OA
ATOM      4  N   VAL A   2     -14.115 -20.066   5.424  0.00  0.00    +0.000 N 
ATOM      5  H   VAL A   2     -15.015 -19.630   5.548  0.00  0.00    +0.000 HD
ATOM      6  CA  VAL A   2     -13.536 -20.788   6.551  0.00  0.00    +0.000 C 
ATOM      7  C   VAL A   2     -14.128 -22.191   6.551  0.00  0.00    +0.000 C 
ATOM      8  O   VAL A   2     -15.349 -22.348   6.651  0.00  0.00    +0.000 OA
ATOM      9  CB  VAL A   2     -13.822 -20.056   7.869  0.00  0.00    +0.000 C 
ATOM     10  CG1 VAL A   2     -13.489 -20.952   9.075  0.00  0.00    +0.000 C 
ATOM     11  CG2 VAL A   2     -13.034 -18.752   7.928  0.00  0.00    +0.000 C 
ATOM     12  N   LEU A   3     -13.275 -23.209   6.406  0.00  0.00    +0.000 N 
ATOM     13  H   LEU A   3     -12.282 -23.000   6.383  0.00  0.00    +0.000 HD
ATOM     14  CA  LEU A   3     -13.700 -24.605   6.274  0.00  0.00    +0.000 C 
ATOM     15  C   LEU A   3     -13.350 -25.370   7.553  0.00  0.00    +0.000 C 
ATOM     16  O   LEU A   3     -12.172 -25.585   7.858  0.00  0.00    +0.000 OA
ATOM     17  CB  LEU A   3     -13.033 -25.256   5.062  0.00  0.00    +0.000 C 
ATOM     18  CG  LEU A   3     -13.290 -26.753   4.843  0.00  0.00    +0.000 C 
ATOM     19  CD1 LEU A   3     -14.779 -27.025   4.701  0.00  0.00    +0.000 C 
ATOM     20  CD2 LEU A   3     -12.522 -27.287   3.637  0.00  0.00    +0.000 C 
ATOM     21  N   VAL A   4     -14.365 -25.802   8.288  0.00  0.00    +0.000 N 
ATOM     22  H   VAL A   4     -15.308 -25.620   7.981  0.00  0.00    +0.000 HD
ATOM     23  CA  VAL A   4     -14.154 -26.472   9.566  0.00  0.00    +0.000 C 
ATOM     24  C   VAL A   4     -13.974 -27.956   9.289  0.00  0.00    +0.000 C 
ATOM     25  O   VAL A   4     -14.909 -28.642   8.867  0.00  0.00    +0.000 OA
ATOM     26  CB  VAL A   4     -15.315 -26.219  10.528  0.00  0.00    +0.000 C 
ATOM     27  CG1 VAL A   4     -15.047 -26.900  11.879  0.00  0.00    +0.000 C 
ATOM     28  CG2 VAL A   4     -15.505 -24.729  10.695  0.00  0.00    +0.000 C 
ATOM     29  N   LEU A   5     -12.774 -28.458   9.542  0.00  0.00    +0.000 N 
ATOM     30  H   LEU A   5     -12.044 -27.854   9.902  0.00  0.00    +0.000 HD
ATOM     31  CA  LEU A   5     -12.444 -29.853   9.289  0.00  0.00    +0.000 C 
ATOM     32  C   LEU A   5     -12.377 -30.574  10.634  0.00  0.00    +0.000 C 
ATOM     33  O   LEU A   5     -11.317 -30.699  11.245  0.00  0.00    +0.000 OA
ATOM     34  CB  LEU A   5     -11.168 -29.948   8.526  0.00  0.00    +0.000 C 
ATOM     35  CG  LEU A   5     -11.284 -29.387   7.107  0.00  0.00    +0.000 C 
ATOM     36  CD1 LEU A   5      -9.935 -29.408   6.384  0.00  0.00    +0.000 C 
ATOM     37  CD2 LEU A   5     -12.323 -30.174   6.314  0.00  0.00    +0.000 C 
ATOM     38  N   SER A   6     -13.544 -31.014  11.098  0.00  0.00    +0.000 N 
ATOM     39  H   SER A   6     -14.364 -30.874  10.526  0.00  0.00    +0.000 HD
ATOM     40  CA  SER A   6     -13.689 -31.913  12.228  0.00  0.00    +0.000 C 
ATOM     41  C   SER A   6     -13.432 -33.345  11.768  0.00  0.00    +0.000 C 
ATOM     42  O   SER A   6     -13.394 -33.625  10.570  0.00  0.00    +0.000 OA
ATOM     43  CB  SER A   6     -15.094 -31.744  12.811  0.00  0.00    +0.000 C 
ATOM     44  OG  SER A   6     -16.048 -31.691  11.756  0.00  0.00    +0.000 OA
ATOM     45  HG  SER A   6     -16.392 -30.791  11.694  0.00  0.00    +0.000 HD
ATOM     46  N   PRO A   7     -13.239 -34.289  12.691  0.00  0.00    +0.000 N 
ATOM     47  CA  PRO A   7     -12.989 -35.675  12.262  0.00  0.00    +0.000 C 
ATOM     48  C   PRO A   7     -14.088 -36.174  11.331  0.00  0.00    +0.000 C 
ATOM     49  O   PRO A   7     -15.278 -36.004  11.597  0.00  0.00    +0.000 OA
ATOM     50  CB  PRO A   7     -12.962 -36.453  13.585  0.00  0.00    +0.000 C 
ATOM     51  CG  PRO A   7     -12.592 -35.431  14.620  0.00  0.00    +0.000 C 
ATOM     52  CD  PRO A   7     -13.246 -34.163  14.163  0.00  0.00    +0.000 C 
ATOM     53  N   GLY A   8     -13.675 -36.747  10.203  0.00  0.00    +0.000 N 
ATOM     54  H   GLY A   8     -12.690 -36.880  10.041  0.00  0.00    +0.000 HD
ATOM     55  CA  GLY A   8     -14.608 -37.269   9.225  0.00  0.00    +0.000 C 
ATOM     56  C   GLY A   8     -15.356 -36.237   8.414  0.00  0.00    +0.000 C 
ATOM     57  O   GLY A   8     -16.281 -36.607   7.688  0.00  0.00    +0.000 OA
ATOM     58  N   ALA A   9     -14.967 -34.958   8.482  0.00  0.00    +0.000 N 
ATOM     59  H   ALA A   9     -14.267 -34.694   9.166  0.00  0.00    +0.000 HD
ATOM     60  CA  ALA A   9     -15.796 -33.896   7.908  0.00  0.00    +0.000 C 
ATOM     61  C   ALA A   9     -16.035 -34.066   6.411  0.00  0.00    +0.000 C 
ATOM     62  O   ALA A   9     -17.048 -33.575   5.894  0.00  0.00    +0.000 OA
ATOM     63  CB  ALA A   9     -15.165 -32.525   8.173  0.00  0.00    +0.000 C 
ATOM     64  N   LEU A  10     -15.133 -34.738   5.690  0.00  0.00    +0.000 N 
ATOM     65  H   LEU A  10     -14.378 -35.212   6.157  0.00  0.00    +0.000 HD
ATOM     66  CA  LEU A  10     -15.297 -34.879   4.244  0.00  0.00    +0.000 C 
ATOM     67  C   LEU A  10     -15.696 -36.289   3.822  0.00  0.00    +0.000 C 
ATOM     68  O   LEU A  10     -15.679 -36.584   2.629  0.00  0.00    +0.000 OA
ATOM     69  CB  LEU A  10     -14.018 -34.463   3.513  0.00  0.00    +0.000 C 
ATOM     70  CG  LEU A  10     -13.502 -33.042   3.792  0.00  0.00    +0.000 C 
ATOM     71  CD1 LEU A  10     -12.245 -32.780   2.991  0.00  0.00    +0.000 C 
ATOM     72  CD2 LEU A  10     -14.575 -31.980   3.509  0.00  0.00    +0.000 C 
ATOM     73  N   ASP A  11     -16.062 -37.159   4.768  0.00  0.00    +0.000 N 
ATOM     74  H   ASP A  11     -16.031 -36.904   5.748  0.00  0.00    +0.000 HD
ATOM     75  CA  ASP A  11     -16.465 -38.522   4.420  0.00  0.00    +0.000 C 
ATOM     76  C   ASP A  11     -17.634 -38.527   3.443  0.00  0.00    +0.000 C 
ATOM     77  O   ASP A  11     -17.630 -39.276   2.461  0.00  0.00    +0.000 OA
ATOM     78  CB  ASP A  11     -16.832 -39.302   5.684  0.00  0.00    +0.000 C 
ATOM     79  CG  ASP A  11     -15.621 -39.690   6.501  0.00  0.00    +0.000 C 
ATOM     80  OD1 ASP A  11     -14.492 -39.324   6.106  0.00  0.00    +0.000 OA
ATOM     81  OD2 ASP A  11     -15.795 -40.363   7.537  0.00  0.00    +0.000 OA
ATOM     82  N   NME A  12     -18.654 -37.702   3.699  0.00  0.00    +0.000 N 
ATOM     83  H   NME A  12     -18.594 -37.096   4.504  0.00  0.00    +0.000 HD
ATOM     84  C   NME A  12     -19.799 -37.644   2.797  0.00  0.00    +0.000 C 
TER 
REMARK  Name = /home/xianyang/aimnet2_score_pipelines/work/L1234-fixed-receptor-eint-20260921/L4/Q6SZW1/prepared.pdb
REMARK                            x       y       z     vdW  Elec       q    Type
REMARK                         _______ _______ _______ _____ _____    ______ ____
ATOM      1  CH3 ACE B   1     -10.052 -20.630   1.640  0.00  0.00    +0.000 C 
ATOM      2  C   ACE B   1      -9.120 -20.835   2.832  0.00  0.00    +0.000 C 
ATOM      3  O   ACE B   1      -7.893 -20.858   2.675  0.00  0.00    +0.000 OA
ATOM      4  N   VAL B   2      -9.697 -20.953   4.028  0.00  0.00    +0.000 N 
ATOM      5  H   VAL B   2     -10.708 -20.890   4.080  0.00  0.00    +0.000 HD
ATOM      6  CA  VAL B   2      -8.938 -21.111   5.259  0.00  0.00    +0.000 C 
ATOM      7  C   VAL B   2      -9.455 -22.355   5.994  0.00  0.00    +0.000 C 
ATOM      8  O   VAL B   2     -10.403 -22.294   6.759  0.00  0.00    +0.000 OA
ATOM      9  CB  VAL B   2      -9.046 -19.863   6.165  0.00  0.00    +0.000 C 
ATOM     10  CG1 VAL B   2      -8.182 -20.051   7.424  0.00  0.00    +0.000 C 
ATOM     11  CG2 VAL B   2      -8.584 -18.633   5.430  0.00  0.00    +0.000 C 
ATOM     12  N   PRO B   3      -8.797 -23.504   5.785  0.00  0.00    +0.000 N 
ATOM     13  CA  PRO B   3      -9.189 -24.711   6.530  0.00  0.00    +0.000 C 
ATOM     14  C   PRO B   3      -8.803 -24.610   7.995  0.00  0.00    +0.000 C 
ATOM     15  O   PRO B   3      -7.703 -24.167   8.328  0.00  0.00    +0.000 OA
ATOM     16  CB  PRO B   3      -8.388 -25.820   5.840  0.00  0.00    +0.000 C 
ATOM     17  CG  PRO B   3      -7.951 -25.237   4.530  0.00  0.00    +0.000 C 
ATOM     18  CD  PRO B   3      -7.762 -23.778   4.794  0.00  0.00    +0.000 C 
ATOM     19  N   ILE B   4      -9.699 -25.070   8.865  0.00  0.00    +0.000 N 
ATOM     20  H   ILE B   4     -10.587 -25.404   8.513  0.00  0.00    +0.000 HD
ATOM     21  CA  ILE B   4      -9.450 -25.161  10.309  0.00  0.00    +0.000 C 
ATOM     22  C   ILE B   4      -9.470 -26.632  10.693  0.00  0.00    +0.000 C 
ATOM     23  O   ILE B   4     -10.509 -27.294  10.573  0.00  0.00    +0.000 OA
ATOM     24  CB  ILE B   4     -10.485 -24.372  11.128  0.00  0.00    +0.000 C 
ATOM     25  CG1 ILE B   4     -10.674 -22.957  10.570  0.00  0.00    +0.000 C 
ATOM     26  CG2 ILE B   4     -10.096 -24.355  12.609  0.00  0.00    +0.000 C 
ATOM     27  CD1 ILE B   4      -9.473 -22.077  10.693  0.00  0.00    +0.000 C 
ATOM     28  N   ILE B   5      -8.326 -27.140  11.145  0.00  0.00    +0.000 N 
ATOM     29  H   ILE B   5      -7.546 -26.508  11.276  0.00  0.00    +0.000 HD
ATOM     30  CA  ILE B   5      -8.121 -28.563  11.396  0.00  0.00    +0.000 C 
ATOM     31  C   ILE B   5      -8.368 -28.836  12.875  0.00  0.00    +0.000 C 
ATOM     32  O   ILE B   5      -7.648 -28.315  13.733  0.00  0.00    +0.000 OA
ATOM     33  CB  ILE B   5      -6.695 -28.995  11.010  0.00  0.00    +0.000 C 
ATOM     34  CG1 ILE B   5      -6.313 -28.490   9.612  0.00  0.00    +0.000 C 
ATOM     35  CG2 ILE B   5      -6.501 -30.497  11.202  0.00  0.00    +0.000 C 
ATOM     36  CD1 ILE B   5      -7.297 -28.793   8.556  0.00  0.00    +0.000 C 
ATOM     37  N   ASP B   6      -9.356 -29.676  13.181  0.00  0.00    +0.000 N 
ATOM     38  H   ASP B   6      -9.983 -30.009  12.451  0.00  0.00    +0.000 HD
ATOM     39  CA  ASP B   6      -9.656 -30.070  14.565  0.00  0.00    +0.000 C 
ATOM     40  C   ASP B   6      -9.767 -31.594  14.630  0.00  0.00    +0.000 C 
ATOM     41  O   ASP B   6     -10.868 -32.143  14.589  0.00  0.00    +0.000 OA
ATOM     42  CB  ASP B   6     -10.944 -29.386  15.068  0.00  0.00    +0.000 C 
ATOM     43  CG  ASP B   6     -11.203 -29.657  16.531  0.00  0.00    +0.000 C 
ATOM     44  OD1 ASP B   6     -10.229 -29.952  17.254  0.00  0.00    +0.000 OA
ATOM     45  OD2 ASP B   6     -12.377 -29.585  16.950  0.00  0.00    +0.000 OA
ATOM     46  N   GLY B   7      -8.628 -32.272  14.740  0.00  0.00    +0.000 N 
ATOM     47  H   GLY B   7      -7.767 -31.762  14.840  0.00  0.00    +0.000 HD
ATOM     48  CA  GLY B   7      -8.637 -33.723  14.837  0.00  0.00    +0.000 C 
ATOM     49  C   GLY B   7      -8.979 -34.434  13.547  0.00  0.00    +0.000 C 
ATOM     50  O   GLY B   7      -9.525 -35.539  13.573  0.00  0.00    +0.000 OA
ATOM     51  N   PHE B   8      -8.656 -33.829  12.416  0.00  0.00    +0.000 N 
ATOM     52  H   PHE B   8      -8.217 -32.926  12.468  0.00  0.00    +0.000 HD
ATOM     53  CA  PHE B   8      -9.058 -34.315  11.109  0.00  0.00    +0.000 C 
ATOM     54  C   PHE B   8      -7.873 -35.008  10.456  0.00  0.00    +0.000 C 
ATOM     55  O   PHE B   8      -6.773 -34.448  10.411  0.00  0.00    +0.000 OA
ATOM     56  CB  PHE B   8      -9.546 -33.131  10.279  0.00  0.00    +0.000 C 
ATOM     57  CG  PHE B   8      -9.856 -33.442   8.846  0.00  0.00    +0.000 A 
ATOM     58  CD1 PHE B   8     -11.057 -34.032   8.490  0.00  0.00    +0.000 A 
ATOM     59  CD2 PHE B   8      -8.980 -33.064   7.846  0.00  0.00    +0.000 A 
ATOM     60  CE1 PHE B   8     -11.353 -34.277   7.155  0.00  0.00    +0.000 A 
ATOM     61  CE2 PHE B   8      -9.270 -33.312   6.520  0.00  0.00    +0.000 A 
ATOM     62  CZ  PHE B   8     -10.456 -33.912   6.177  0.00  0.00    +0.000 A 
ATOM     63  N   GLU B   9      -8.091 -36.229   9.972  0.00  0.00    +0.000 N 
ATOM     64  H   GLU B   9      -9.016 -36.626   9.987  0.00  0.00    +0.000 HD
ATOM     65  CA  GLU B   9      -7.056 -36.955   9.238  0.00  0.00    +0.000 C 
ATOM     66  C   GLU B   9      -7.075 -36.505   7.784  0.00  0.00    +0.000 C 
ATOM     67  O   GLU B   9      -8.109 -36.616   7.120  0.00  0.00    +0.000 OA
ATOM     68  CB  GLU B   9      -7.286 -38.465   9.331  0.00  0.00    +0.000 C 
ATOM     69  CG  GLU B   9      -6.368 -39.302   8.429  0.00  0.00    +0.000 C 
ATOM     70  CD  GLU B   9      -7.122 -40.033   7.316  0.00  0.00    +0.000 C 
ATOM     71  OE1 GLU B   9      -6.605 -40.091   6.178  0.00  0.00    +0.000 OA
ATOM     72  OE2 GLU B   9      -8.230 -40.551   7.579  0.00  0.00    +0.000 OA
ATOM     73  N   TRP B  10      -5.949 -35.990   7.292  0.00  0.00    +0.000 N 
ATOM     74  H   TRP B  10      -5.102 -36.003   7.836  0.00  0.00    +0.000 HD
ATOM     75  CA  TRP B  10      -5.901 -35.510   5.919  0.00  0.00    +0.000 C 
ATOM     76  C   TRP B  10      -6.129 -36.683   4.971  0.00  0.00    +0.000 C 
ATOM     77  O   TRP B  10      -5.385 -37.672   5.034  0.00  0.00    +0.000 OA
ATOM     78  CB  TRP B  10      -4.565 -34.833   5.595  0.00  0.00    +0.000 C 
ATOM     79  CG  TRP B  10      -4.233 -33.608   6.411  0.00  0.00    +0.000 A 
ATOM     80  CD1 TRP B  10      -4.851 -33.182   7.552  0.00  0.00    +0.000 A 
ATOM     81  CD2 TRP B  10      -3.189 -32.656   6.144  0.00  0.00    +0.000 A 
ATOM     82  NE1 TRP B  10      -4.259 -32.027   8.012  0.00  0.00    +0.000 N 
ATOM     83  HE1 TRP B  10      -4.536 -31.536   8.849  0.00  0.00    +0.000 HD
ATOM     84  CE2 TRP B  10      -3.239 -31.682   7.164  0.00  0.00    +0.000 A 
ATOM     85  CE3 TRP B  10      -2.219 -32.532   5.141  0.00  0.00    +0.000 A 
ATOM     86  CZ2 TRP B  10      -2.353 -30.604   7.213  0.00  0.00    +0.000 A 
ATOM     87  CZ3 TRP B  10      -1.340 -31.456   5.192  0.00  0.00    +0.000 A 
ATOM     88  CH2 TRP B  10      -1.411 -30.513   6.223  0.00  0.00    +0.000 A 
ATOM     89  N   PRO B  11      -7.135 -36.634   4.106  0.00  0.00    +0.000 N 
ATOM     90  CA  PRO B  11      -7.301 -37.701   3.118  0.00  0.00    +0.000 C 
ATOM     91  C   PRO B  11      -6.307 -37.553   1.980  0.00  0.00    +0.000 C 
ATOM     92  O   PRO B  11      -5.825 -36.460   1.678  0.00  0.00    +0.000 OA
ATOM     93  CB  PRO B  11      -8.739 -37.505   2.626  0.00  0.00    +0.000 C 
ATOM     94  CG  PRO B  11      -8.975 -36.035   2.776  0.00  0.00    +0.000 C 
ATOM     95  CD  PRO B  11      -8.154 -35.578   3.964  0.00  0.00    +0.000 C 
ATOM     96  N   GLU B  12      -5.979 -38.679   1.360  0.00  0.00    +0.000 N 
ATOM     97  H   GLU B  12      -6.324 -39.560   1.703  0.00  0.00    +0.000 HD
ATOM     98  CA  GLU B  12      -5.219 -38.615   0.124  0.00  0.00    +0.000 C 
ATOM     99  C   GLU B  12      -6.100 -38.011  -0.966  0.00  0.00    +0.000 C 
ATOM    100  O   GLU B  12      -7.312 -38.246  -0.983  0.00  0.00    +0.000 OA
ATOM    101  CB  GLU B  12      -4.732 -40.002  -0.293  0.00  0.00    +0.000 C 
ATOM    102  CG  GLU B  12      -3.500 -40.486   0.473  0.00  0.00    +0.000 C 
ATOM    103  CD  GLU B  12      -2.259 -39.631   0.216  0.00  0.00    +0.000 C 
ATOM    104  OE1 GLU B  12      -1.829 -39.528  -0.955  0.00  0.00    +0.000 OA
ATOM    105  OE2 GLU B  12      -1.705 -39.074   1.190  0.00  0.00    +0.000 OA
ATOM    106  N   PRO B  13      -5.531 -37.211  -1.870  0.00  0.00    +0.000 N 
ATOM    107  CA  PRO B  13      -6.373 -36.504  -2.846  0.00  0.00    +0.000 C 
ATOM    108  C   PRO B  13      -7.268 -37.413  -3.674  0.00  0.00    +0.000 C 
ATOM    109  O   PRO B  13      -8.398 -37.025  -3.983  0.00  0.00    +0.000 OA
ATOM    110  CB  PRO B  13      -5.349 -35.763  -3.724  0.00  0.00    +0.000 C 
ATOM    111  CG  PRO B  13      -3.998 -36.349  -3.370  0.00  0.00    +0.000 C 
ATOM    112  CD  PRO B  13      -4.120 -36.803  -1.953  0.00  0.00    +0.000 C 
ATOM    113  N   GLN B  14      -6.813 -38.614  -4.035  0.00  0.00    +0.000 N 
ATOM    114  H   GLN B  14      -5.879 -38.910  -3.765  0.00  0.00    +0.000 HD
ATOM    115  CA  GLN B  14      -7.586 -39.432  -4.965  0.00  0.00    +0.000 C 
ATOM    116  C   GLN B  14      -8.850 -40.017  -4.346  0.00  0.00    +0.000 C 
ATOM    117  O   GLN B  14      -9.691 -40.533  -5.089  0.00  0.00    +0.000 OA
ATOM    118  CB  GLN B  14      -6.717 -40.560  -5.530  0.00  0.00    +0.000 C 
ATOM    119  CG  GLN B  14      -6.442 -41.681  -4.540  0.00  0.00    +0.000 C 
ATOM    120  CD  GLN B  14      -5.169 -41.467  -3.742  0.00  0.00    +0.000 C 
ATOM    121  OE1 GLN B  14      -4.569 -40.386  -3.768  0.00  0.00    +0.000 OA
ATOM    122  NE2 GLN B  14      -4.749 -42.503  -3.020  0.00  0.00    +0.000 N 
ATOM    123 HE21 GLN B  14      -3.924 -42.316  -2.468  0.00  0.00    +0.000 HD
ATOM    124 HE22 GLN B  14      -5.115 -43.421  -3.164  0.00  0.00    +0.000 HD
ATOM    125  N   VAL B  15      -9.018 -39.959  -3.021  0.00  0.00    +0.000 N 
ATOM    126  H   VAL B  15      -8.342 -39.479  -2.436  0.00  0.00    +0.000 HD
ATOM    127  CA  VAL B  15     -10.283 -40.420  -2.452  0.00  0.00    +0.000 C 
ATOM    128  C   VAL B  15     -11.379 -39.373  -2.541  0.00  0.00    +0.000 C 
ATOM    129  O   VAL B  15     -12.546 -39.688  -2.274  0.00  0.00    +0.000 OA
ATOM    130  CB  VAL B  15     -10.145 -40.856  -0.983  0.00  0.00    +0.000 C 
ATOM    131  CG1 VAL B  15      -9.004 -41.843  -0.822  0.00  0.00    +0.000 C 
ATOM    132  CG2 VAL B  15      -9.974 -39.648  -0.074  0.00  0.00    +0.000 C 
ATOM    133  N   LEU B  16     -11.039 -38.126  -2.924  0.00  0.00    +0.000 N 
ATOM    134  H   LEU B  16     -10.090 -37.950  -3.235  0.00  0.00    +0.000 HD
ATOM    135  CA  LEU B  16     -11.987 -37.030  -3.046  0.00  0.00    +0.000 C 
ATOM    136  C   LEU B  16     -12.355 -36.794  -4.505  0.00  0.00    +0.000 C 
ATOM    137  O   LEU B  16     -11.545 -37.042  -5.405  0.00  0.00    +0.000 OA
ATOM    138  CB  LEU B  16     -11.401 -35.736  -2.473  0.00  0.00    +0.000 C 
ATOM    139  CG  LEU B  16     -11.034 -35.685  -0.992  0.00  0.00    +0.000 C 
ATOM    140  CD1 LEU B  16     -10.261 -34.404  -0.677  0.00  0.00    +0.000 C 
ATOM    141  CD2 LEU B  16     -12.298 -35.779  -0.163  0.00  0.00    +0.000 C 
ATOM    142  N   PRO B  17     -13.569 -36.305  -4.758  0.00  0.00    +0.000 N 
ATOM    143  CA  PRO B  17     -13.931 -35.912  -6.124  0.00  0.00    +0.000 C 
ATOM    144  C   PRO B  17     -12.933 -34.907  -6.675  0.00  0.00    +0.000 C 
ATOM    145  O   PRO B  17     -12.410 -34.057  -5.947  0.00  0.00    +0.000 OA
ATOM    146  CB  PRO B  17     -15.325 -35.295  -5.963  0.00  0.00    +0.000 C 
ATOM    147  CG  PRO B  17     -15.853 -35.888  -4.681  0.00  0.00    +0.000 C 
ATOM    148  CD  PRO B  17     -14.665 -36.080  -3.797  0.00  0.00    +0.000 C 
ATOM    149  N   NME B  18     -12.666 -35.025  -7.976  0.00  0.00    +0.000 N 
ATOM    150  H   NME B  18     -13.088 -35.776  -8.498  0.00  0.00    +0.000 HD
ATOM    151  C   NME B  18     -11.628 -34.213  -8.597  0.00  0.00    +0.000 C 
TER 
REMARK  Name = /home/xianyang/aimnet2_score_pipelines/work/L1234-fixed-receptor-eint-20260921/L4/Q6SZW1/prepared.pdb
REMARK                            x       y       z     vdW  Elec       q    Type
REMARK                         _______ _______ _______ _____ _____    ______ ____
ATOM      1  CH3 ACE C   1      -9.157 -32.060  -4.550  0.00  0.00    +0.000 C 
ATOM      2  C   ACE C   1      -8.243 -30.868  -4.286  0.00  0.00    +0.000 C 
ATOM      3  O   ACE C   1      -7.360 -30.949  -3.426  0.00  0.00    +0.000 OA
ATOM      4  N   ALA C   2      -8.430 -29.764  -5.011  0.00  0.00    +0.000 N 
ATOM      5  H   ALA C   2      -9.128 -29.761  -5.738  0.00  0.00    +0.000 HD
ATOM      6  CA  ALA C   2      -7.627 -28.564  -4.791  0.00  0.00    +0.000 C 
ATOM      7  C   ALA C   2      -7.753 -28.012  -3.377  0.00  0.00    +0.000 C 
ATOM      8  O   ALA C   2      -6.945 -27.160  -2.986  0.00  0.00    +0.000 OA
ATOM      9  CB  ALA C   2      -8.020 -27.468  -5.781  0.00  0.00    +0.000 C 
ATOM     10  N   VAL C   3      -8.731 -28.463  -2.594  0.00  0.00    +0.000 N 
ATOM     11  H   VAL C   3      -9.371 -29.166  -2.928  0.00  0.00    +0.000 HD
ATOM     12  CA  VAL C   3      -8.865 -27.895  -1.255  0.00  0.00    +0.000 C 
ATOM     13  C   VAL C   3      -7.629 -28.212  -0.424  0.00  0.00    +0.000 C 
ATOM     14  O   VAL C   3      -7.241 -27.433   0.460  0.00  0.00    +0.000 OA
ATOM     15  CB  VAL C   3     -10.161 -28.398  -0.596  0.00  0.00    +0.000 C 
ATOM     16  CG1 VAL C   3      -9.971 -29.810  -0.046  0.00  0.00    +0.000 C 
ATOM     17  CG2 VAL C   3     -10.615 -27.427   0.491  0.00  0.00    +0.000 C 
ATOM     18  N   LEU C   4      -6.949 -29.317  -0.741  0.00  0.00    +0.000 N 
ATOM     19  H   LEU C   4      -7.256 -29.877  -1.526  0.00  0.00    +0.000 HD
ATOM     20  CA  LEU C   4      -5.787 -29.762   0.018  0.00  0.00    +0.000 C 
ATOM     21  C   LEU C   4      -4.547 -28.924  -0.259  0.00  0.00    +0.000 C 
ATOM     22  O   LEU C   4      -3.537 -29.098   0.430  0.00  0.00    +0.000 OA
ATOM     23  CB  LEU C   4      -5.490 -31.229  -0.299  0.00  0.00    +0.000 C 
ATOM     24  CG  LEU C   4      -6.515 -32.287   0.124  0.00  0.00    +0.000 C 
ATOM     25  CD1 LEU C   4      -6.384 -33.520  -0.733  0.00  0.00    +0.000 C 
ATOM     26  CD2 LEU C   4      -6.317 -32.642   1.588  0.00  0.00    +0.000 C 
ATOM     27  N   THR C   5      -4.600 -28.016  -1.227  0.00  0.00    +0.000 N 
ATOM     28  H   THR C   5      -5.458 -27.885  -1.751  0.00  0.00    +0.000 HD
ATOM     29  CA  THR C   5      -3.474 -27.149  -1.547  0.00  0.00    +0.000 C 
ATOM     30  C   THR C   5      -3.460 -25.853  -0.741  0.00  0.00    +0.000 C 
ATOM     31  O   THR C   5      -2.535 -25.052  -0.911  0.00  0.00    +0.000 OA
ATOM     32  CB  THR C   5      -3.471 -26.823  -3.042  0.00  0.00    +0.000 C 
ATOM     33  OG1 THR C   5      -4.562 -25.940  -3.350  0.00  0.00    +0.000 OA
ATOM     34  HG1 THR C   5      -4.423 -25.093  -2.891  0.00  0.00    +0.000 HD
ATOM     35  CG2 THR C   5      -3.602 -28.094  -3.857  0.00  0.00    +0.000 C 
ATOM     36  N   PHE C   6      -4.434 -25.636   0.139  0.00  0.00    +0.000 N 
ATOM     37  H   PHE C   6      -5.134 -26.352   0.288  0.00  0.00    +0.000 HD
ATOM     38  CA  PHE C   6      -4.546 -24.395   0.897  0.00  0.00    +0.000 C 
ATOM     39  C   PHE C   6      -3.996 -24.597   2.298  0.00  0.00    +0.000 C 
ATOM     40  O   PHE C   6      -4.263 -25.618   2.928  0.00  0.00    +0.000 OA
ATOM     41  CB  PHE C   6      -6.005 -23.924   0.972  0.00  0.00    +0.000 C 
ATOM     42  CG  PHE C   6      -6.520 -23.389  -0.313  0.00  0.00    +0.000 A 
ATOM     43  CD1 PHE C   6      -7.035 -24.240  -1.274  0.00  0.00    +0.000 A 
ATOM     44  CD2 PHE C   6      -6.465 -22.034  -0.585  0.00  0.00    +0.000 A 
ATOM     45  CE1 PHE C   6      -7.494 -23.754  -2.475  0.00  0.00    +0.000 A 
ATOM     46  CE2 PHE C   6      -6.919 -21.536  -1.788  0.00  0.00    +0.000 A 
ATOM     47  CZ  PHE C   6      -7.444 -22.397  -2.735  0.00  0.00    +0.000 A 
ATOM     48  N   ASN C   7      -3.229 -23.616   2.782  0.00  0.00    +0.000 N 
ATOM     49  H   ASN C   7      -3.085 -22.782   2.238  0.00  0.00    +0.000 HD
ATOM     50  CA  ASN C   7      -2.626 -23.725   4.101  0.00  0.00    +0.000 C 
ATOM     51  C   ASN C   7      -3.703 -23.689   5.170  0.00  0.00    +0.000 C 
ATOM     52  O   ASN C   7      -4.534 -22.779   5.184  0.00  0.00    +0.000 OA
ATOM     53  CB  ASN C   7      -1.643 -22.586   4.335  0.00  0.00    +0.000 C 
ATOM     54  CG  ASN C   7      -0.845 -22.778   5.594  0.00  0.00    +0.000 C 
ATOM     55  OD1 ASN C   7      -0.625 -23.917   6.035  0.00  0.00    +0.000 OA
ATOM     56  ND2 ASN C   7      -0.409 -21.677   6.190  0.00  0.00    +0.000 N 
ATOM     57 HD21 ASN C   7      -0.622 -20.771   5.805  0.00  0.00    +0.000 HD
ATOM     58 HD22 ASN C   7       0.121 -21.826   7.036  0.00  0.00    +0.000 HD
ATOM     59  N   GLY C   8      -3.677 -24.676   6.076  0.00  0.00    +0.000 N 
ATOM     60  H   GLY C   8      -2.901 -25.320   6.067  0.00  0.00    +0.000 HD
ATOM     61  CA  GLY C   8      -4.655 -24.771   7.137  0.00  0.00    +0.000 C 
ATOM     62  C   GLY C   8      -4.134 -24.269   8.479  0.00  0.00    +0.000 C 
ATOM     63  O   GLY C   8      -2.947 -24.028   8.679  0.00  0.00    +0.000 OA
ATOM     64  N   ILE C   9      -5.068 -24.100   9.406  0.00  0.00    +0.000 N 
ATOM     65  H   ILE C   9      -6.041 -24.238   9.145  0.00  0.00    +0.000 HD
ATOM     66  CA  ILE C   9      -4.773 -23.680  10.770  0.00  0.00    +0.000 C 
ATOM     67  C   ILE C   9      -5.204 -24.797  11.709  0.00  0.00    +0.000 C 
ATOM     68  O   ILE C   9      -6.343 -25.275  11.634  0.00  0.00    +0.000 OA
ATOM     69  CB  ILE C   9      -5.479 -22.356  11.110  0.00  0.00    +0.000 C 
ATOM     70  CG1 ILE C   9      -4.864 -21.224  10.285  0.00  0.00    +0.000 C 
ATOM     71  CG2 ILE C   9      -5.391 -22.041  12.625  0.00  0.00    +0.000 C 
ATOM     72  CD1 ILE C   9      -5.731 -19.963  10.240  0.00  0.00    +0.000 C 
ATOM     73  N   LYS C  10      -4.294 -25.222  12.588  0.00  0.00    +0.000 N 
ATOM     74  H   LYS C  10      -3.394 -24.766  12.618  0.00  0.00    +0.000 HD
ATOM     75  CA  LYS C  10      -4.612 -26.252  13.567  0.00  0.00    +0.000 C 
ATOM     76  C   LYS C  10      -5.308 -25.616  14.758  0.00  0.00    +0.000 C 
ATOM     77  O   LYS C  10      -4.749 -24.718  15.398  0.00  0.00    +0.000 OA
ATOM     78  CB  LYS C  10      -3.353 -26.981  14.030  0.00  0.00    +0.000 C 
ATOM     79  CG  LYS C  10      -3.577 -27.895  15.226  0.00  0.00    +0.000 C 
ATOM     80  CD  LYS C  10      -2.913 -27.341  16.497  0.00  0.00    +0.000 C 
ATOM     81  CE  LYS C  10      -2.720 -28.433  17.559  0.00  0.00    +0.000 C 
ATOM     82  NZ  LYS C  10      -4.008 -28.912  18.154  0.00  0.00    +0.000 N 
ATOM     83  HZ1 LYS C  10      -4.506 -28.137  18.576  0.00  0.00    +0.000 HD
ATOM     84  HZ2 LYS C  10      -4.611 -29.314  17.449  0.00  0.00    +0.000 HD
ATOM     85  HZ3 LYS C  10      -3.836 -29.599  18.878  0.00  0.00    +0.000 HD
ATOM     86  N   NME C  11      -6.525 -26.072  15.049  0.00  0.00    +0.000 N 
ATOM     87  H   NME C  11      -6.956 -26.783  14.464  0.00  0.00    +0.000 HD
ATOM     88  C   NME C  11      -7.230 -25.594  16.223  0.00  0.00    +0.000 C 
TER 
