REMARK  Name = /data/user_data/xianyang/t3-aimnet-affinity-balanced/L1/P51532/pocket.pdb
REMARK                            x       y       z     vdW  Elec       q    Type
REMARK                         _______ _______ _______ _____ _____    ______ ____
ATOM      1  N   VAL A   1      -9.511  -0.943  15.783  0.00  0.00    +0.000 N 
ATOM      2  CA  VAL A   1      -9.739  -0.879  17.220  0.00  0.00    +0.000 C 
ATOM      3  C   VAL A   1      -8.514  -0.349  17.945  0.00  0.00    +0.000 C 
ATOM      4  O   VAL A   1      -8.581  -0.093  19.159  0.00  0.00    +0.000 OA
ATOM      5  CB  VAL A   1     -10.149  -2.257  17.770  0.00  0.00    +0.000 C 
ATOM      6  CG1 VAL A   1     -11.519  -2.670  17.259  0.00  0.00    +0.000 C 
ATOM      7  CG2 VAL A   1      -9.080  -3.334  17.655  0.00  0.00    +0.000 C 
ATOM      8  N   PHE A   2      -7.364  -0.239  17.253  0.00  0.00    +0.000 N 
ATOM      9  CA  PHE A   2      -6.100   0.100  17.878  0.00  0.00    +0.000 C 
ATOM     10  C   PHE A   2      -5.632   1.495  17.535  0.00  0.00    +0.000 C 
ATOM     11  O   PHE A   2      -4.552   1.895  17.995  0.00  0.00    +0.000 OA
ATOM     12  CB  PHE A   2      -5.007  -0.908  17.524  0.00  0.00    +0.000 C 
ATOM     13  CG  PHE A   2      -5.380  -2.307  17.953  0.00  0.00    +0.000 A 
ATOM     14  CD2 PHE A   2      -5.494  -2.661  19.283  0.00  0.00    +0.000 A 
ATOM     15  CD1 PHE A   2      -5.572  -3.300  17.008  0.00  0.00    +0.000 A 
ATOM     16  CE2 PHE A   2      -5.860  -3.956  19.653  0.00  0.00    +0.000 A 
ATOM     17  CE1 PHE A   2      -5.895  -4.628  17.404  0.00  0.00    +0.000 A 
ATOM     18  CZ  PHE A   2      -6.052  -4.933  18.750  0.00  0.00    +0.000 A 
ATOM     19  N   ILE A   3      -6.416   2.240  16.796  0.00  0.00    +0.000 N 
ATOM     20  CA  ILE A   3      -6.007   3.580  16.445  0.00  0.00    +0.000 C 
ATOM     21  C   ILE A   3      -5.927   4.479  17.676  0.00  0.00    +0.000 C 
ATOM     22  O   ILE A   3      -4.984   5.276  17.851  0.00  0.00    +0.000 OA
ATOM     23  CB  ILE A   3      -6.935   4.141  15.357  0.00  0.00    +0.000 C 
ATOM     24  CG1 ILE A   3      -6.947   3.289  14.092  0.00  0.00    +0.000 C 
ATOM     25  CG2 ILE A   3      -6.588   5.563  15.011  0.00  0.00    +0.000 C 
ATOM     26  CD1 ILE A   3      -5.599   3.026  13.449  0.00  0.00    +0.000 C 
ATOM     27  N   GLN A   4      -7.005   4.406  18.458  0.00  0.00    +0.000 N 
ATOM     28  CA  GLN A   4      -7.214   5.320  19.563  0.00  0.00    +0.000 C 
ATOM     29  C   GLN A   4      -7.623   4.561  20.815  0.00  0.00    +0.000 C 
ATOM     30  O   GLN A   4      -8.700   3.972  20.848  0.00  0.00    +0.000 OA
ATOM     31  CB  GLN A   4      -8.345   6.316  19.211  0.00  0.00    +0.000 C 
ATOM     32  CG  GLN A   4      -8.643   7.373  20.280  0.00  0.00    +0.000 C 
ATOM     33  CD  GLN A   4      -9.751   8.275  19.770  0.00  0.00    +0.000 C 
ATOM     34  OE1 GLN A   4     -10.004   8.358  18.577  0.00  0.00    +0.000 OA
ATOM     35  NE2 GLN A   4     -10.517   8.907  20.648  0.00  0.00    +0.000 N 
ATOM     36  N   LEU A   5      -6.823   4.603  21.869  0.00  0.00    +0.000 N 
ATOM     37  CA  LEU A   5      -7.218   4.054  23.168  0.00  0.00    +0.000 C 
ATOM     38  C   LEU A   5      -8.492   4.707  23.750  0.00  0.00    +0.000 C 
ATOM     39  O   LEU A   5      -8.942   5.773  23.341  0.00  0.00    +0.000 OA
ATOM     40  CB  LEU A   5      -6.052   4.032  24.169  0.00  0.00    +0.000 C 
ATOM     41  CG  LEU A   5      -5.308   2.695  24.388  0.00  0.00    +0.000 C 
ATOM     42  CD2 LEU A   5      -4.087   2.942  25.248  0.00  0.00    +0.000 C 
ATOM     43  CD1 LEU A   5      -6.207   1.602  25.016  0.00  0.00    +0.000 C 
ATOM     44  N   PRO A   6      -9.339   3.986  24.510  0.00  0.00    +0.000 N 
ATOM     45  CA  PRO A   6     -10.368   4.655  25.323  0.00  0.00    +0.000 C 
ATOM     46  C   PRO A   6      -9.675   5.486  26.403  0.00  0.00    +0.000 C 
ATOM     47  O   PRO A   6      -8.531   5.230  26.780  0.00  0.00    +0.000 OA
ATOM     48  CB  PRO A   6     -11.115   3.487  25.971  0.00  0.00    +0.000 C 
ATOM     49  CG  PRO A   6     -11.008   2.442  24.919  0.00  0.00    +0.000 C 
ATOM     50  CD  PRO A   6      -9.553   2.540  24.488  0.00  0.00    +0.000 C 
ATOM     51  H   VAL A   1     -10.347  -1.301  15.322  0.00  0.00    +0.000 HD
ATOM     52  H   VAL A   1      -8.724  -1.563  15.591  0.00  0.00    +0.000 HD
ATOM     53  H   VAL A   1      -9.302  -0.009  15.430  0.00  0.00    +0.000 HD
ATOM     54  H   PHE A   2      -7.382  -0.395  16.281  0.00  0.00    +0.000 HD
ATOM     55  H   ILE A   3      -7.280   1.888  16.481  0.00  0.00    +0.000 HD
ATOM     56  H   GLN A   4      -7.679   3.711  18.279  0.00  0.00    +0.000 HD
ATOM     57  H   GLN A   4     -11.241   9.496  20.335  0.00  0.00    +0.000 HD
ATOM     58  H   GLN A   4     -10.362   8.787  21.613  0.00  0.00    +0.000 HD
ATOM     59  H   LEU A   5      -5.934   5.016  21.777  0.00  0.00    +0.000 HD
TER 
REMARK  Name = /data/user_data/xianyang/t3-aimnet-affinity-balanced/L1/P51532/pocket.pdb
REMARK                            x       y       z     vdW  Elec       q    Type
REMARK                         _______ _______ _______ _____ _____    ______ ____
ATOM      1  N   GLU B   1     -13.454   6.325  30.593  0.00  0.00    +0.000 N 
ATOM      2  CA  GLU B   1     -14.501   5.430  30.101  0.00  0.00    +0.000 C 
ATOM      3  C   GLU B   1     -14.116   3.997  30.470  0.00  0.00    +0.000 C 
ATOM      4  O   GLU B   1     -14.963   3.116  30.668  0.00  0.00    +0.000 OA
ATOM      5  CB  GLU B   1     -14.791   5.640  28.602  0.00  0.00    +0.000 C 
ATOM      6  CG  GLU B   1     -14.423   4.471  27.685  0.00  0.00    +0.000 C 
ATOM      7  CD  GLU B   1     -14.758   4.636  26.204  0.00  0.00    +0.000 C 
ATOM      8  OE2 GLU B   1     -15.824   4.131  25.782  0.00  0.00    +0.000 OA
ATOM      9  OE1 GLU B   1     -13.924   5.246  25.453  0.00  0.00    +0.000 OA
ATOM     10  N   LEU B   2     -12.808   3.809  30.619  0.00  0.00    +0.000 N 
ATOM     11  CA  LEU B   2     -12.158   2.545  30.876  0.00  0.00    +0.000 C 
ATOM     12  C   LEU B   2     -11.000   2.778  31.849  0.00  0.00    +0.000 C 
ATOM     13  O   LEU B   2      -9.844   2.482  31.548  0.00  0.00    +0.000 OA
ATOM     14  CB  LEU B   2     -11.658   2.038  29.515  0.00  0.00    +0.000 C 
ATOM     15  CG  LEU B   2     -11.354   0.547  29.406  0.00  0.00    +0.000 C 
ATOM     16  CD2 LEU B   2     -12.633  -0.271  29.474  0.00  0.00    +0.000 C 
ATOM     17  CD1 LEU B   2     -10.597   0.239  28.110  0.00  0.00    +0.000 C 
ATOM     18  H   GLU B   1     -13.692   7.288  30.357  0.00  0.00    +0.000 HD
ATOM     19  H   GLU B   1     -12.564   6.078  30.159  0.00  0.00    +0.000 HD
ATOM     20  H   GLU B   1     -13.376   6.233  31.606  0.00  0.00    +0.000 HD
ATOM     21  H   LEU B   2     -12.231   4.603  30.548  0.00  0.00    +0.000 HD
TER 
REMARK  Name = /data/user_data/xianyang/t3-aimnet-affinity-balanced/L1/P51532/pocket.pdb
REMARK                            x       y       z     vdW  Elec       q    Type
REMARK                         _______ _______ _______ _____ _____    ______ ____
ATOM      1  N   TYR C   1      -8.437  -0.154  32.292  0.00  0.00    +0.000 N 
ATOM      2  CA  TYR C   1      -7.376  -0.451  31.317  0.00  0.00    +0.000 C 
ATOM      3  C   TYR C   1      -6.003  -0.043  31.890  0.00  0.00    +0.000 C 
ATOM      4  O   TYR C   1      -4.976  -0.700  31.782  0.00  0.00    +0.000 OA
ATOM      5  CB  TYR C   1      -7.674   0.156  29.936  0.00  0.00    +0.000 C 
ATOM      6  CG  TYR C   1      -6.704  -0.232  28.828  0.00  0.00    +0.000 A 
ATOM      7  CD2 TYR C   1      -5.463   0.384  28.656  0.00  0.00    +0.000 A 
ATOM      8  CD1 TYR C   1      -6.958  -1.355  28.053  0.00  0.00    +0.000 A 
ATOM      9  CE2 TYR C   1      -4.582  -0.034  27.665  0.00  0.00    +0.000 A 
ATOM     10  CE1 TYR C   1      -6.104  -1.765  27.030  0.00  0.00    +0.000 A 
ATOM     11  CZ  TYR C   1      -4.886  -1.121  26.853  0.00  0.00    +0.000 A 
ATOM     12  OH  TYR C   1      -3.985  -1.492  25.871  0.00  0.00    +0.000 OA
ATOM     13  H   TYR C   1      -9.340  -0.427  31.905  0.00  0.00    +0.000 HD
ATOM     14  H   TYR C   1      -8.442   0.846  32.495  0.00  0.00    +0.000 HD
ATOM     15  H   TYR C   1      -8.264  -0.675  33.152  0.00  0.00    +0.000 HD
ATOM     16  H   TYR C   1      -4.173  -2.222  25.314  0.00  0.00    +0.000 HD
TER 
REMARK  Name = /data/user_data/xianyang/t3-aimnet-affinity-balanced/L1/P51532/pocket.pdb
REMARK                            x       y       z     vdW  Elec       q    Type
REMARK                         _______ _______ _______ _____ _____    ______ ____
ATOM      1  N   VAL D   1      -0.361   2.392  24.734  0.00  0.00    +0.000 N 
ATOM      2  CA  VAL D   1       0.032   2.966  23.453  0.00  0.00    +0.000 C 
ATOM      3  C   VAL D   1      -0.997   2.561  22.401  0.00  0.00    +0.000 C 
ATOM      4  O   VAL D   1      -1.586   1.442  22.451  0.00  0.00    +0.000 OA
ATOM      5  CB  VAL D   1       1.427   2.512  23.026  0.00  0.00    +0.000 C 
ATOM      6  CG2 VAL D   1       1.539   1.018  23.069  0.00  0.00    +0.000 C 
ATOM      7  CG1 VAL D   1       1.848   3.036  21.679  0.00  0.00    +0.000 C 
ATOM      8  N   ASP D   2      -1.245   3.477  21.479  0.00  0.00    +0.000 N 
ATOM      9  CA  ASP D   2      -2.123   3.184  20.345  0.00  0.00    +0.000 C 
ATOM     10  C   ASP D   2      -1.406   3.628  19.071  0.00  0.00    +0.000 C 
ATOM     11  O   ASP D   2      -0.298   4.187  19.096  0.00  0.00    +0.000 OA
ATOM     12  CB  ASP D   2      -3.512   3.849  20.539  0.00  0.00    +0.000 C 
ATOM     13  CG  ASP D   2      -3.432   5.347  20.833  0.00  0.00    +0.000 C 
ATOM     14  OD1 ASP D   2      -2.382   5.974  20.485  0.00  0.00    +0.000 OA
ATOM     15  OD2 ASP D   2      -4.440   5.977  21.347  0.00  0.00    +0.000 OA
ATOM     16  N   PHE D   3      -1.982   3.411  17.895  0.00  0.00    +0.000 N 
ATOM     17  CA  PHE D   3      -1.288   3.793  16.655  0.00  0.00    +0.000 C 
ATOM     18  C   PHE D   3      -1.147   5.285  16.524  0.00  0.00    +0.000 C 
ATOM     19  O   PHE D   3      -0.171   5.699  15.927  0.00  0.00    +0.000 OA
ATOM     20  CB  PHE D   3      -1.921   3.153  15.411  0.00  0.00    +0.000 C 
ATOM     21  CG  PHE D   3      -1.607   1.691  15.247  0.00  0.00    +0.000 A 
ATOM     22  CD1 PHE D   3      -0.304   1.342  14.892  0.00  0.00    +0.000 A 
ATOM     23  CD2 PHE D   3      -2.567   0.686  15.379  0.00  0.00    +0.000 A 
ATOM     24  CE1 PHE D   3       0.080   0.022  14.708  0.00  0.00    +0.000 A 
ATOM     25  CE2 PHE D   3      -2.147  -0.655  15.270  0.00  0.00    +0.000 A 
ATOM     26  CZ  PHE D   3      -0.863  -0.971  14.884  0.00  0.00    +0.000 A 
ATOM     27  H   VAL D   1      -1.295   2.719  24.981  0.00  0.00    +0.000 HD
ATOM     28  H   VAL D   1       0.302   2.681  25.454  0.00  0.00    +0.000 HD
ATOM     29  H   VAL D   1      -0.365   1.374  24.664  0.00  0.00    +0.000 HD
ATOM     30  H   ASP D   2      -0.833   4.368  21.557  0.00  0.00    +0.000 HD
ATOM     31  H   PHE D   3      -2.873   2.995  17.852  0.00  0.00    +0.000 HD
TER 
REMARK  Name = /data/user_data/xianyang/t3-aimnet-affinity-balanced/L1/P51532/pocket.pdb
REMARK                            x       y       z     vdW  Elec       q    Type
REMARK                         _______ _______ _______ _____ _____    ______ ____
ATOM      1  N   LEU E   1       2.033  -2.586  22.039  0.00  0.00    +0.000 N 
ATOM      2  CA  LEU E   1       0.604  -2.353  21.808  0.00  0.00    +0.000 C 
ATOM      3  C   LEU E   1      -0.147  -3.703  21.780  0.00  0.00    +0.000 C 
ATOM      4  O   LEU E   1      -1.187  -3.878  22.460  0.00  0.00    +0.000 OA
ATOM      5  CB  LEU E   1       0.433  -1.590  20.492  0.00  0.00    +0.000 C 
ATOM      6  CG  LEU E   1      -0.968  -1.129  20.119  0.00  0.00    +0.000 C 
ATOM      7  CD1 LEU E   1      -0.899  -0.041  19.053  0.00  0.00    +0.000 C 
ATOM      8  CD2 LEU E   1      -1.842  -2.262  19.574  0.00  0.00    +0.000 C 
ATOM      9  H   LEU E   1       2.525  -1.692  22.057  0.00  0.00    +0.000 HD
ATOM     10  H   LEU E   1       2.409  -3.166  21.289  0.00  0.00    +0.000 HD
ATOM     11  H   LEU E   1       2.160  -3.062  22.932  0.00  0.00    +0.000 HD
TER 
REMARK  Name = /data/user_data/xianyang/t3-aimnet-affinity-balanced/L1/P51532/pocket.pdb
REMARK                            x       y       z     vdW  Elec       q    Type
REMARK                         _______ _______ _______ _____ _____    ______ ____
ATOM      1  N   ASN F   1      -0.274  -5.505  25.159  0.00  0.00    +0.000 N 
ATOM      2  CA  ASN F   1      -1.202  -4.848  26.043  0.00  0.00    +0.000 C 
ATOM      3  C   ASN F   1      -2.625  -5.320  25.726  0.00  0.00    +0.000 C 
ATOM      4  O   ASN F   1      -3.439  -5.607  26.647  0.00  0.00    +0.000 OA
ATOM      5  CB  ASN F   1      -1.168  -3.319  25.912  0.00  0.00    +0.000 C 
ATOM      6  CG  ASN F   1       0.101  -2.697  26.483  0.00  0.00    +0.000 C 
ATOM      7  OD1 ASN F   1       0.843  -3.324  27.275  0.00  0.00    +0.000 OA
ATOM      8  ND2 ASN F   1       0.358  -1.463  26.072  0.00  0.00    +0.000 N 
ATOM      9  N   ALA F   2      -2.967  -5.400  24.430  0.00  0.00    +0.000 N 
ATOM     10  CA  ALA F   2      -4.267  -5.924  24.008  0.00  0.00    +0.000 C 
ATOM     11  C   ALA F   2      -4.449  -7.325  24.568  0.00  0.00    +0.000 C 
ATOM     12  O   ALA F   2      -5.566  -7.689  24.952  0.00  0.00    +0.000 OA
ATOM     13  CB  ALA F   2      -4.391  -5.860  22.497  0.00  0.00    +0.000 C 
ATOM     14  N   GLN F   3      -3.431  -8.129  24.437  0.00  0.00    +0.000 N 
ATOM     15  CA  GLN F   3      -3.463  -9.533  24.886  0.00  0.00    +0.000 C 
ATOM     16  C   GLN F   3      -3.599  -9.620  26.417  0.00  0.00    +0.000 C 
ATOM     17  O   GLN F   3      -4.257 -10.512  26.984  0.00  0.00    +0.000 OA
ATOM     18  CB  GLN F   3      -2.275 -10.351  24.373  0.00  0.00    +0.000 C 
ATOM     19  CG  GLN F   3      -2.367 -10.456  22.866  0.00  0.00    +0.000 C 
ATOM     20  CD  GLN F   3      -1.071 -10.709  22.146  0.00  0.00    +0.000 C 
ATOM     21  OE1 GLN F   3      -0.851 -10.197  21.039  0.00  0.00    +0.000 OA
ATOM     22  NE2 GLN F   3      -0.159 -11.444  22.767  0.00  0.00    +0.000 N 
ATOM     23  H   ASN F   1      -0.339  -6.515  25.288  0.00  0.00    +0.000 HD
ATOM     24  H   ASN F   1       0.675  -5.195  25.371  0.00  0.00    +0.000 HD
ATOM     25  H   ASN F   1      -0.501  -5.270  24.193  0.00  0.00    +0.000 HD
ATOM     26  H   ASN F   1      -0.257  -1.014  25.449  0.00  0.00    +0.000 HD
ATOM     27  H   ASN F   1       1.164  -0.996  26.390  0.00  0.00    +0.000 HD
ATOM     28  H   ALA F   2      -2.327  -5.098  23.746  0.00  0.00    +0.000 HD
ATOM     29  H   GLN F   3      -2.608  -7.785  24.021  0.00  0.00    +0.000 HD
ATOM     30  H   GLN F   3       0.703 -11.633  22.329  0.00  0.00    +0.000 HD
ATOM     31  H   GLN F   3      -0.343 -11.801  23.666  0.00  0.00    +0.000 HD
TER 
REMARK  Name = /data/user_data/xianyang/t3-aimnet-affinity-balanced/L1/P51532/pocket.pdb
REMARK                            x       y       z     vdW  Elec       q    Type
REMARK                         _______ _______ _______ _____ _____    ______ ____
ATOM      1  N   PHE G   1      -5.187  -7.348  28.365  0.00  0.00    +0.000 N 
ATOM      2  CA  PHE G   1      -6.444  -6.787  28.828  0.00  0.00    +0.000 C 
ATOM      3  C   PHE G   1      -7.638  -7.618  28.373  0.00  0.00    +0.000 C 
ATOM      4  O   PHE G   1      -8.631  -7.695  29.120  0.00  0.00    +0.000 OA
ATOM      5  CB  PHE G   1      -6.616  -5.348  28.343  0.00  0.00    +0.000 C 
ATOM      6  CG  PHE G   1      -7.833  -4.658  28.876  0.00  0.00    +0.000 A 
ATOM      7  CD2 PHE G   1      -7.905  -4.243  30.202  0.00  0.00    +0.000 A 
ATOM      8  CD1 PHE G   1      -8.892  -4.402  28.037  0.00  0.00    +0.000 A 
ATOM      9  CE2 PHE G   1      -9.046  -3.622  30.686  0.00  0.00    +0.000 A 
ATOM     10  CE1 PHE G   1     -10.026  -3.786  28.524  0.00  0.00    +0.000 A 
ATOM     11  CZ  PHE G   1     -10.107  -3.407  29.848  0.00  0.00    +0.000 A 
ATOM     12  N   ASN G   2      -7.560  -8.208  27.196  0.00  0.00    +0.000 N 
ATOM     13  CA  ASN G   2      -8.649  -8.950  26.592  0.00  0.00    +0.000 C 
ATOM     14  C   ASN G   2      -8.442 -10.437  26.723  0.00  0.00    +0.000 C 
ATOM     15  O   ASN G   2      -7.362 -10.923  26.869  0.00  0.00    +0.000 OA
ATOM     16  CB  ASN G   2      -8.679  -8.566  25.113  0.00  0.00    +0.000 C 
ATOM     17  CG  ASN G   2      -9.082  -7.145  24.907  0.00  0.00    +0.000 C 
ATOM     18  OD1 ASN G   2     -10.232  -6.754  25.022  0.00  0.00    +0.000 OA
ATOM     19  ND2 ASN G   2      -8.040  -6.323  24.733  0.00  0.00    +0.000 N 
ATOM     20  H   PHE G   1      -4.415  -6.765  28.689  0.00  0.00    +0.000 HD
ATOM     21  H   PHE G   1      -5.184  -7.380  27.346  0.00  0.00    +0.000 HD
ATOM     22  H   PHE G   1      -5.079  -8.292  28.735  0.00  0.00    +0.000 HD
ATOM     23  H   ASN G   2      -6.713  -8.141  26.699  0.00  0.00    +0.000 HD
ATOM     24  H   ASN G   2      -8.191  -5.361  24.588  0.00  0.00    +0.000 HD
ATOM     25  H   ASN G   2      -7.123  -6.680  24.750  0.00  0.00    +0.000 HD
TER 
REMARK  Name = /data/user_data/xianyang/t3-aimnet-affinity-balanced/L1/P51532/pocket.pdb
REMARK                            x       y       z     vdW  Elec       q    Type
REMARK                         _______ _______ _______ _____ _____    ______ ____
ATOM      1  N   ILE H   1     -10.433  -8.743  19.810  0.00  0.00    +0.000 N 
ATOM      2  CA  ILE H   1      -9.326  -7.805  20.013  0.00  0.00    +0.000 C 
ATOM      3  C   ILE H   1      -8.022  -8.522  20.291  0.00  0.00    +0.000 C 
ATOM      4  O   ILE H   1      -6.985  -8.184  19.700  0.00  0.00    +0.000 OA
ATOM      5  CB  ILE H   1      -9.666  -6.777  21.108  0.00  0.00    +0.000 C 
ATOM      6  CG1 ILE H   1     -10.828  -5.958  20.592  0.00  0.00    +0.000 C 
ATOM      7  CG2 ILE H   1      -8.481  -5.871  21.408  0.00  0.00    +0.000 C 
ATOM      8  CD1 ILE H   1     -11.354  -4.896  21.513  0.00  0.00    +0.000 C 
ATOM      9  H   ILE H   1     -10.183  -9.412  19.081  0.00  0.00    +0.000 HD
ATOM     10  H   ILE H   1     -11.267  -8.228  19.527  0.00  0.00    +0.000 HD
ATOM     11  H   ILE H   1     -10.620  -9.242  20.680  0.00  0.00    +0.000 HD
TER 
