REMARK  Name = /data/user_data/xianyang/t3-aimnet-affinity-balanced/L3/Q00961/pocket.pdb
REMARK                            x       y       z     vdW  Elec       q    Type
REMARK                         _______ _______ _______ _____ _____    ______ ____
ATOM      1  N   HIS A   1     125.336 169.259 176.807  0.00  0.00    +0.000 N 
ATOM      2  CA  HIS A   1     126.463 170.071 177.262  0.00  0.00    +0.000 C 
ATOM      3  C   HIS A   1     126.042 171.333 178.006  0.00  0.00    +0.000 C 
ATOM      4  O   HIS A   1     126.664 171.700 179.006  0.00  0.00    +0.000 OA
ATOM      5  CB  HIS A   1     127.338 170.445 176.068  0.00  0.00    +0.000 C 
ATOM      6  CG  HIS A   1     127.773 169.269 175.253  0.00  0.00    +0.000 C 
ATOM      7  ND1 HIS A   1     127.172 168.929 174.061  0.00  0.00    +0.000 NA
ATOM      8  CD2 HIS A   1     128.750 168.356 175.457  0.00  0.00    +0.000 C 
ATOM      9  CE1 HIS A   1     127.758 167.852 173.568  0.00  0.00    +0.000 C 
ATOM     10  NE2 HIS A   1     128.720 167.487 174.394  0.00  0.00    +0.000 NA
ATOM     11  N   GLY A   2     124.993 172.003 177.539  0.00  0.00    +0.000 N 
ATOM     12  CA  GLY A   2     124.436 173.108 178.294  0.00  0.00    +0.000 C 
ATOM     13  C   GLY A   2     123.847 174.229 177.466  0.00  0.00    +0.000 C 
ATOM     14  O   GLY A   2     124.480 174.721 176.528  0.00  0.00    +0.000 OA
ATOM     15  H   HIS A   1     125.686 168.434 176.320  0.00  0.00    +0.000 HD
ATOM     16  H   HIS A   1     124.756 169.808 176.173  0.00  0.00    +0.000 HD
ATOM     17  H   HIS A   1     124.780 168.968 177.611  0.00  0.00    +0.000 HD
ATOM     18  H   GLY A   2     124.593 171.748 176.677  0.00  0.00    +0.000 HD
TER 
REMARK  Name = /data/user_data/xianyang/t3-aimnet-affinity-balanced/L3/Q00961/pocket.pdb
REMARK                            x       y       z     vdW  Elec       q    Type
REMARK                         _______ _______ _______ _____ _____    ______ ____
ATOM      1  N   SER B   1     133.427 167.122 175.889  0.00  0.00    +0.000 N 
ATOM      2  CA  SER B   1     133.359 167.910 174.659  0.00  0.00    +0.000 C 
ATOM      3  C   SER B   1     132.630 169.224 174.939  0.00  0.00    +0.000 C 
ATOM      4  O   SER B   1     131.493 169.452 174.526  0.00  0.00    +0.000 OA
ATOM      5  CB  SER B   1     132.678 167.112 173.557  0.00  0.00    +0.000 C 
ATOM      6  OG  SER B   1     133.254 165.825 173.434  0.00  0.00    +0.000 OA
ATOM      7  N   LEU B   2     133.318 170.099 175.664  0.00  0.00    +0.000 N 
ATOM      8  CA  LEU B   2     132.775 171.386 176.082  0.00  0.00    +0.000 C 
ATOM      9  C   LEU B   2     133.543 172.499 175.383  0.00  0.00    +0.000 C 
ATOM     10  O   LEU B   2     134.749 172.648 175.593  0.00  0.00    +0.000 OA
ATOM     11  CB  LEU B   2     132.862 171.539 177.600  0.00  0.00    +0.000 C 
ATOM     12  CG  LEU B   2     131.866 172.491 178.253  0.00  0.00    +0.000 C 
ATOM     13  CD1 LEU B   2     130.449 172.045 177.982  0.00  0.00    +0.000 C 
ATOM     14  CD2 LEU B   2     132.121 172.564 179.737  0.00  0.00    +0.000 C 
ATOM     15  N   THR B   3     132.845 173.280 174.564  0.00  0.00    +0.000 N 
ATOM     16  CA  THR B   3     133.473 174.343 173.794  0.00  0.00    +0.000 C 
ATOM     17  C   THR B   3     133.491 175.642 174.585  0.00  0.00    +0.000 C 
ATOM     18  O   THR B   3     132.509 176.000 175.239  0.00  0.00    +0.000 OA
ATOM     19  CB  THR B   3     132.742 174.564 172.470  0.00  0.00    +0.000 C 
ATOM     20  OG1 THR B   3     131.332 174.440 172.678  0.00  0.00    +0.000 OA
ATOM     21  CG2 THR B   3     133.186 173.550 171.436  0.00  0.00    +0.000 C 
ATOM     22  H   SER B   1     133.913 166.245 175.704  0.00  0.00    +0.000 HD
ATOM     23  H   SER B   1     132.482 166.924 176.219  0.00  0.00    +0.000 HD
ATOM     24  H   SER B   1     133.933 167.647 176.602  0.00  0.00    +0.000 HD
ATOM     25  H   SER B   1     133.146 165.342 174.268  0.00  0.00    +0.000 HD
ATOM     26  H   LEU B   2     134.237 169.868 175.931  0.00  0.00    +0.000 HD
ATOM     27  H   THR B   3     131.875 173.135 174.476  0.00  0.00    +0.000 HD
ATOM     28  H   THR B   3     131.130 173.548 173.002  0.00  0.00    +0.000 HD
TER 
REMARK  Name = /data/user_data/xianyang/t3-aimnet-affinity-balanced/L3/Q00961/pocket.pdb
REMARK                            x       y       z     vdW  Elec       q    Type
REMARK                         _______ _______ _______ _____ _____    ______ ____
ATOM      1  N   ASN C   1     133.144 179.442 174.981  0.00  0.00    +0.000 N 
ATOM      2  CA  ASN C   1     132.473 180.545 174.311  0.00  0.00    +0.000 C 
ATOM      3  C   ASN C   1     132.139 181.617 175.340  0.00  0.00    +0.000 C 
ATOM      4  O   ASN C   1     132.222 181.392 176.549  0.00  0.00    +0.000 OA
ATOM      5  CB  ASN C   1     131.246 180.057 173.521  0.00  0.00    +0.000 C 
ATOM      6  CG  ASN C   1     130.102 179.582 174.402  0.00  0.00    +0.000 C 
ATOM      7  OD1 ASN C   1     130.044 179.860 175.595  0.00  0.00    +0.000 OA
ATOM      8  ND2 ASN C   1     129.174 178.853 173.797  0.00  0.00    +0.000 N 
ATOM      9  H   ASN C   1     133.372 178.718 174.299  0.00  0.00    +0.000 HD
ATOM     10  H   ASN C   1     132.529 179.054 175.696  0.00  0.00    +0.000 HD
ATOM     11  H   ASN C   1     134.002 179.780 175.417  0.00  0.00    +0.000 HD
ATOM     12  H   ASN C   1     129.255 178.651 172.837  0.00  0.00    +0.000 HD
ATOM     13  H   ASN C   1     128.404 178.514 174.308  0.00  0.00    +0.000 HD
TER 
REMARK  Name = /data/user_data/xianyang/t3-aimnet-affinity-balanced/L3/Q00961/pocket.pdb
REMARK                            x       y       z     vdW  Elec       q    Type
REMARK                         _______ _______ _______ _____ _____    ______ ____
ATOM      1  N   ARG D   1     129.384 181.159 178.165  0.00  0.00    +0.000 N 
ATOM      2  CA  ARG D   1     129.769 180.276 179.258  0.00  0.00    +0.000 C 
ATOM      3  C   ARG D   1     130.928 180.855 180.056  0.00  0.00    +0.000 C 
ATOM      4  O   ARG D   1     130.967 180.721 181.283  0.00  0.00    +0.000 OA
ATOM      5  CB  ARG D   1     130.138 178.895 178.721  0.00  0.00    +0.000 C 
ATOM      6  CG  ARG D   1     129.001 178.155 178.052  0.00  0.00    +0.000 C 
ATOM      7  CD  ARG D   1     129.523 176.952 177.294  0.00  0.00    +0.000 C 
ATOM      8  NE  ARG D   1     128.452 176.197 176.661  0.00  0.00    +0.000 N 
ATOM      9  CZ  ARG D   1     128.641 175.135 175.892  0.00  0.00    +0.000 C 
ATOM     10  NH2 ARG D   1     129.852 174.670 175.644  0.00  0.00    +0.000 N 
ATOM     11  NH1 ARG D   1     127.588 174.526 175.357  0.00  0.00    +0.000 N 
ATOM     12  H   ARG D   1     128.607 180.744 177.650  0.00  0.00    +0.000 HD
ATOM     13  H   ARG D   1     130.177 181.288 177.537  0.00  0.00    +0.000 HD
ATOM     14  H   ARG D   1     129.098 182.063 178.542  0.00  0.00    +0.000 HD
ATOM     15  H   ARG D   1     127.526 176.495 176.814  0.00  0.00    +0.000 HD
ATOM     16  H   ARG D   1     129.967 173.879 175.069  0.00  0.00    +0.000 HD
ATOM     17  H   ARG D   1     130.639 175.114 176.034  0.00  0.00    +0.000 HD
ATOM     18  H   ARG D   1     127.715 173.736 174.784  0.00  0.00    +0.000 HD
ATOM     19  H   ARG D   1     126.681 174.865 175.534  0.00  0.00    +0.000 HD
TER 
REMARK  Name = /data/user_data/xianyang/t3-aimnet-affinity-balanced/L3/Q00961/pocket.pdb
REMARK                            x       y       z     vdW  Elec       q    Type
REMARK                         _______ _______ _______ _____ _____    ______ ____
ATOM      1  N   THR E   1     121.459 170.939 162.139  0.00  0.00    +0.000 N 
ATOM      2  CA  THR E   1     122.428 170.723 163.203  0.00  0.00    +0.000 C 
ATOM      3  C   THR E   1     121.705 170.273 164.462  0.00  0.00    +0.000 C 
ATOM      4  O   THR E   1     120.491 170.443 164.598  0.00  0.00    +0.000 OA
ATOM      5  CB  THR E   1     123.241 171.990 163.488  0.00  0.00    +0.000 C 
ATOM      6  OG1 THR E   1     124.324 171.675 164.370  0.00  0.00    +0.000 OA
ATOM      7  CG2 THR E   1     122.367 173.053 164.128  0.00  0.00    +0.000 C 
ATOM      8  N   VAL E   2     122.468 169.694 165.385  0.00  0.00    +0.000 N 
ATOM      9  CA  VAL E   2     121.926 169.233 166.661  0.00  0.00    +0.000 C 
ATOM     10  C   VAL E   2     121.662 170.441 167.554  0.00  0.00    +0.000 C 
ATOM     11  O   VAL E   2     122.578 171.236 167.806  0.00  0.00    +0.000 OA
ATOM     12  CB  VAL E   2     122.873 168.235 167.342  0.00  0.00    +0.000 C 
ATOM     13  CG2 VAL E   2     122.233 167.677 168.597  0.00  0.00    +0.000 C 
ATOM     14  CG1 VAL E   2     123.230 167.113 166.387  0.00  0.00    +0.000 C 
ATOM     15  N   PRO E   3     120.446 170.618 168.048  0.00  0.00    +0.000 N 
ATOM     16  CA  PRO E   3     120.110 171.806 168.839  0.00  0.00    +0.000 C 
ATOM     17  C   PRO E   3     120.676 171.713 170.252  0.00  0.00    +0.000 C 
ATOM     18  O   PRO E   3     121.199 170.686 170.678  0.00  0.00    +0.000 OA
ATOM     19  CB  PRO E   3     118.578 171.819 168.867  0.00  0.00    +0.000 C 
ATOM     20  CG  PRO E   3     118.124 170.580 168.214  0.00  0.00    +0.000 C 
ATOM     21  CD  PRO E   3     119.273 169.808 167.686  0.00  0.00    +0.000 C 
ATOM     22  N   ASN E   4     120.547 172.823 170.982  0.00  0.00    +0.000 N 
ATOM     23  CA  ASN E   4     121.039 172.956 172.352  0.00  0.00    +0.000 C 
ATOM     24  C   ASN E   4     122.543 172.683 172.429  0.00  0.00    +0.000 C 
ATOM     25  O   ASN E   4     123.005 171.737 173.069  0.00  0.00    +0.000 OA
ATOM     26  CB  ASN E   4     120.261 172.054 173.314  0.00  0.00    +0.000 C 
ATOM     27  CG  ASN E   4     118.782 172.001 173.000  0.00  0.00    +0.000 C 
ATOM     28  OD1 ASN E   4     118.158 173.021 172.713  0.00  0.00    +0.000 OA
ATOM     29  ND2 ASN E   4     118.211 170.806 173.064  0.00  0.00    +0.000 N 
ATOM     30  N   GLY E   5     123.303 173.542 171.759  0.00  0.00    +0.000 N 
ATOM     31  CA  GLY E   5     124.748 173.453 171.786  0.00  0.00    +0.000 C 
ATOM     32  C   GLY E   5     125.354 174.799 171.463  0.00  0.00    +0.000 C 
ATOM     33  O   GLY E   5     124.651 175.793 171.274  0.00  0.00    +0.000 OA
ATOM     34  N   SER E   6     126.686 174.822 171.412  0.00  0.00    +0.000 N 
ATOM     35  CA  SER E   6     127.380 176.062 171.082  0.00  0.00    +0.000 C 
ATOM     36  C   SER E   6     127.142 176.456 169.632  0.00  0.00    +0.000 C 
ATOM     37  O   SER E   6     127.030 177.645 169.315  0.00  0.00    +0.000 OA
ATOM     38  CB  SER E   6     128.875 175.923 171.359  0.00  0.00    +0.000 C 
ATOM     39  OG  SER E   6     129.435 174.862 170.608  0.00  0.00    +0.000 OA
ATOM     40  N   THR E   7     127.069 175.470 168.734  0.00  0.00    +0.000 N 
ATOM     41  CA  THR E   7     126.865 175.764 167.319  0.00  0.00    +0.000 C 
ATOM     42  C   THR E   7     125.523 176.444 167.085  0.00  0.00    +0.000 C 
ATOM     43  O   THR E   7     125.431 177.419 166.330  0.00  0.00    +0.000 OA
ATOM     44  CB  THR E   7     126.960 174.480 166.498  0.00  0.00    +0.000 C 
ATOM     45  OG1 THR E   7     126.393 173.396 167.242  0.00  0.00    +0.000 OA
ATOM     46  CG2 THR E   7     128.407 174.162 166.185  0.00  0.00    +0.000 C 
ATOM     47  N   GLU E   8     124.465 175.940 167.723  0.00  0.00    +0.000 N 
ATOM     48  CA  GLU E   8     123.143 176.524 167.529  0.00  0.00    +0.000 C 
ATOM     49  C   GLU E   8     123.100 177.962 168.026  0.00  0.00    +0.000 C 
ATOM     50  O   GLU E   8     122.538 178.841 167.364  0.00  0.00    +0.000 OA
ATOM     51  CB  GLU E   8     122.082 175.682 168.235  0.00  0.00    +0.000 C 
ATOM     52  CG  GLU E   8     120.663 176.172 167.989  0.00  0.00    +0.000 C 
ATOM     53  CD  GLU E   8     119.767 176.006 169.199  0.00  0.00    +0.000 C 
ATOM     54  OE1 GLU E   8     119.436 174.854 169.542  0.00  0.00    +0.000 OA
ATOM     55  OE2 GLU E   8     119.392 177.029 169.808  0.00  0.00    +0.000 OA
ATOM     56  H   THR E   1     121.944 171.241 161.294  0.00  0.00    +0.000 HD
ATOM     57  H   THR E   1     120.794 171.658 162.425  0.00  0.00    +0.000 HD
ATOM     58  H   THR E   1     120.960 170.069 161.952  0.00  0.00    +0.000 HD
ATOM     59  H   THR E   1     123.971 171.334 165.207  0.00  0.00    +0.000 HD
ATOM     60  H   VAL E   2     123.428 169.572 165.203  0.00  0.00    +0.000 HD
ATOM     61  H   ASN E   4     120.095 173.597 170.574  0.00  0.00    +0.000 HD
ATOM     62  H   ASN E   4     117.251 170.708 172.870  0.00  0.00    +0.000 HD
ATOM     63  H   ASN E   4     118.747 170.016 173.305  0.00  0.00    +0.000 HD
ATOM     64  H   GLY E   5     122.874 174.255 171.232  0.00  0.00    +0.000 HD
ATOM     65  H   SER E   6     127.201 174.003 171.597  0.00  0.00    +0.000 HD
ATOM     66  H   SER E   6     129.320 175.040 169.661  0.00  0.00    +0.000 HD
ATOM     67  H   THR E   7     127.154 174.535 169.030  0.00  0.00    +0.000 HD
ATOM     68  H   THR E   7     126.885 173.280 168.070  0.00  0.00    +0.000 HD
ATOM     69  H   GLU E   8     124.577 175.171 168.327  0.00  0.00    +0.000 HD
TER 
REMARK  Name = /data/user_data/xianyang/t3-aimnet-affinity-balanced/L3/Q00961/pocket.pdb
REMARK                            x       y       z     vdW  Elec       q    Type
REMARK                         _______ _______ _______ _____ _____    ______ ____
ATOM      1  N   TYR F   1     128.396 171.160 162.495  0.00  0.00    +0.000 N 
ATOM      2  CA  TYR F   1     128.633 170.633 163.839  0.00  0.00    +0.000 C 
ATOM      3  C   TYR F   1     130.057 170.970 164.269  0.00  0.00    +0.000 C 
ATOM      4  O   TYR F   1     130.697 171.863 163.707  0.00  0.00    +0.000 OA
ATOM      5  CB  TYR F   1     128.340 169.131 163.891  0.00  0.00    +0.000 C 
ATOM      6  CG  TYR F   1     128.018 168.627 165.279  0.00  0.00    +0.000 A 
ATOM      7  CD2 TYR F   1     127.015 169.212 166.036  0.00  0.00    +0.000 A 
ATOM      8  CD1 TYR F   1     128.713 167.564 165.827  0.00  0.00    +0.000 A 
ATOM      9  CE2 TYR F   1     126.722 168.753 167.305  0.00  0.00    +0.000 A 
ATOM     10  CE1 TYR F   1     128.430 167.099 167.090  0.00  0.00    +0.000 A 
ATOM     11  CZ  TYR F   1     127.435 167.695 167.825  0.00  0.00    +0.000 A 
ATOM     12  OH  TYR F   1     127.152 167.229 169.087  0.00  0.00    +0.000 OA
ATOM     13  N   ASP F   2     130.537 170.289 165.308  0.00  0.00    +0.000 N 
ATOM     14  CA  ASP F   2     131.860 170.572 165.851  0.00  0.00    +0.000 C 
ATOM     15  C   ASP F   2     132.953 169.968 164.985  0.00  0.00    +0.000 C 
ATOM     16  O   ASP F   2     132.845 168.824 164.538  0.00  0.00    +0.000 OA
ATOM     17  CB  ASP F   2     131.984 170.034 167.270  0.00  0.00    +0.000 C 
ATOM     18  CG  ASP F   2     131.311 170.916 168.283  0.00  0.00    +0.000 C 
ATOM     19  OD1 ASP F   2     130.597 171.858 167.880  0.00  0.00    +0.000 OA
ATOM     20  OD2 ASP F   2     131.498 170.659 169.487  0.00  0.00    +0.000 OA
ATOM     21  H   TYR F   1     127.444 170.936 162.205  0.00  0.00    +0.000 HD
ATOM     22  H   TYR F   1     129.058 170.739 161.843  0.00  0.00    +0.000 HD
ATOM     23  H   TYR F   1     128.521 172.172 162.500  0.00  0.00    +0.000 HD
ATOM     24  H   TYR F   1     127.637 166.509 169.440  0.00  0.00    +0.000 HD
ATOM     25  H   ASP F   2     129.988 169.581 165.717  0.00  0.00    +0.000 HD
TER 
REMARK  Name = /data/user_data/xianyang/t3-aimnet-affinity-balanced/L3/Q00961/pocket.pdb
REMARK                            x       y       z     vdW  Elec       q    Type
REMARK                         _______ _______ _______ _____ _____    ______ ____
ATOM      1  N   TYR G   1     138.333 172.917 173.386  0.00  0.00    +0.000 N 
ATOM      2  CA  TYR G   1     137.705 172.206 174.487  0.00  0.00    +0.000 C 
ATOM      3  C   TYR G   1     138.401 172.561 175.791  0.00  0.00    +0.000 C 
ATOM      4  O   TYR G   1     139.630 172.533 175.881  0.00  0.00    +0.000 OA
ATOM      5  CB  TYR G   1     137.768 170.697 174.263  0.00  0.00    +0.000 C 
ATOM      6  CG  TYR G   1     136.812 170.176 173.219  0.00  0.00    +0.000 A 
ATOM      7  CD1 TYR G   1     135.831 170.987 172.678  0.00  0.00    +0.000 A 
ATOM      8  CD2 TYR G   1     136.891 168.867 172.776  0.00  0.00    +0.000 A 
ATOM      9  CE1 TYR G   1     134.957 170.509 171.725  0.00  0.00    +0.000 A 
ATOM     10  CE2 TYR G   1     136.021 168.384 171.824  0.00  0.00    +0.000 A 
ATOM     11  CZ  TYR G   1     135.057 169.209 171.304  0.00  0.00    +0.000 A 
ATOM     12  OH  TYR G   1     134.187 168.732 170.355  0.00  0.00    +0.000 OA
ATOM     13  H   TYR G   1     137.863 172.676 172.513  0.00  0.00    +0.000 HD
ATOM     14  H   TYR G   1     139.316 172.652 173.327  0.00  0.00    +0.000 HD
ATOM     15  H   TYR G   1     138.261 173.922 173.545  0.00  0.00    +0.000 HD
ATOM     16  H   TYR G   1     133.528 169.295 169.999  0.00  0.00    +0.000 HD
TER 
