REMARK  Name = /home/xianyang/aimnet2_score_pipelines/work/L1234-fixed-receptor-eint-20260921/L2/O95819/prepared.pdb
REMARK                            x       y       z     vdW  Elec       q    Type
REMARK                         _______ _______ _______ _____ _____    ______ ____
ATOM      1  CH3 ACE A   1     -19.927   5.748  30.666  0.00  0.00    +0.000 C 
ATOM      2  C   ACE A   1     -19.854   4.461  29.844  0.00  0.00    +0.000 C 
ATOM      3  O   ACE A   1     -19.373   3.447  30.347  0.00  0.00    +0.000 OA
ATOM      4  N   VAL A   2     -20.311   4.510  28.578  0.00  0.00    +0.000 N 
ATOM      5  H   VAL A   2     -20.629   5.395  28.218  0.00  0.00    +0.000 HD
ATOM      6  CA  VAL A   2     -20.276   3.368  27.659  0.00  0.00    +0.000 C 
ATOM      7  C   VAL A   2     -18.829   3.155  27.163  0.00  0.00    +0.000 C 
ATOM      8  O   VAL A   2     -18.156   4.123  26.809  0.00  0.00    +0.000 OA
ATOM      9  CB  VAL A   2     -21.282   3.495  26.477  0.00  0.00    +0.000 C 
ATOM     10  CG1 VAL A   2     -21.645   2.117  25.925  0.00  0.00    +0.000 C 
ATOM     11  CG2 VAL A   2     -22.549   4.248  26.880  0.00  0.00    +0.000 C 
ATOM     12  N   VAL A   3     -18.352   1.901  27.174  0.00  0.00    +0.000 N 
ATOM     13  H   VAL A   3     -18.958   1.163  27.511  0.00  0.00    +0.000 HD
ATOM     14  CA  VAL A   3     -17.004   1.551  26.719  0.00  0.00    +0.000 C 
ATOM     15  C   VAL A   3     -17.048   0.852  25.369  0.00  0.00    +0.000 C 
ATOM     16  O   VAL A   3     -16.089   0.944  24.605  0.00  0.00    +0.000 OA
ATOM     17  CB  VAL A   3     -16.139   0.778  27.750  0.00  0.00    +0.000 C 
ATOM     18  CG1 VAL A   3     -15.802   1.642  28.952  0.00  0.00    +0.000 C 
ATOM     19  CG2 VAL A   3     -16.764  -0.551  28.159  0.00  0.00    +0.000 C 
ATOM     20  N   GLY A   4     -18.182   0.226  25.072  0.00  0.00    +0.000 N 
ATOM     21  H   GLY A   4     -18.940   0.241  25.742  0.00  0.00    +0.000 HD
ATOM     22  CA  GLY A   4     -18.398  -0.476  23.817  0.00  0.00    +0.000 C 
ATOM     23  C   GLY A   4     -19.737  -1.169  23.725  0.00  0.00    +0.000 C 
ATOM     24  O   GLY A   4     -20.712  -0.770  24.373  0.00  0.00    +0.000 OA
ATOM     25  N   ASN A   5     -19.785  -2.211  22.904  0.00  0.00    +0.000 N 
ATOM     26  H   ASN A   5     -18.939  -2.517  22.439  0.00  0.00    +0.000 HD
ATOM     27  CA  ASN A   5     -20.989  -2.996  22.662  0.00  0.00    +0.000 C 
ATOM     28  C   ASN A   5     -20.618  -4.464  22.563  0.00  0.00    +0.000 C 
ATOM     29  O   ASN A   5     -19.505  -4.786  22.141  0.00  0.00    +0.000 OA
ATOM     30  CB  ASN A   5     -21.632  -2.552  21.323  0.00  0.00    +0.000 C 
ATOM     31  CG  ASN A   5     -22.592  -1.386  21.412  0.00  0.00    +0.000 C 
ATOM     32  OD1 ASN A   5     -22.242  -0.278  21.835  0.00  0.00    +0.000 OA
ATOM     33  ND2 ASN A   5     -23.817  -1.590  20.946  0.00  0.00    +0.000 N 
ATOM     34 HD21 ASN A   5     -24.071  -2.479  20.542  0.00  0.00    +0.000 HD
ATOM     35 HD22 ASN A   5     -24.466  -0.828  21.018  0.00  0.00    +0.000 HD
ATOM     36  N   GLY A   6     -21.557  -5.333  22.925  0.00  0.00    +0.000 N 
ATOM     37  H   GLY A   6     -22.464  -4.965  23.175  0.00  0.00    +0.000 HD
ATOM     38  CA  GLY A   6     -21.440  -6.776  22.740  0.00  0.00    +0.000 C 
ATOM     39  C   GLY A   6     -22.194  -7.125  21.467  0.00  0.00    +0.000 C 
ATOM     40  O   GLY A   6     -22.321  -6.276  20.574  0.00  0.00    +0.000 OA
ATOM     41  N   THR A   7     -22.731  -8.357  21.363  0.00  0.00    +0.000 N 
ATOM     42  H   THR A   7     -22.487  -9.056  22.047  0.00  0.00    +0.000 HD
ATOM     43  CA  THR A   7     -23.565  -8.714  20.206  0.00  0.00    +0.000 C 
ATOM     44  C   THR A   7     -24.954  -8.117  20.485  0.00  0.00    +0.000 C 
ATOM     45  O   THR A   7     -25.623  -7.613  19.577  0.00  0.00    +0.000 OA
ATOM     46  CB  THR A   7     -23.494 -10.214  19.887  0.00  0.00    +0.000 C 
ATOM     47  OG1 THR A   7     -22.133 -10.551  19.582  0.00  0.00    +0.000 OA
ATOM     48  HG1 THR A   7     -21.586 -10.453  20.365  0.00  0.00    +0.000 HD
ATOM     49  CG2 THR A   7     -24.391 -10.612  18.710  0.00  0.00    +0.000 C 
ATOM     50  N   TYR A   8     -25.327  -8.096  21.772  0.00  0.00    +0.000 N 
ATOM     51  H   TYR A   8     -24.675  -8.441  22.455  0.00  0.00    +0.000 HD
ATOM     52  CA  TYR A   8     -26.539  -7.476  22.291  0.00  0.00    +0.000 C 
ATOM     53  C   TYR A   8     -26.171  -6.652  23.526  0.00  0.00    +0.000 C 
ATOM     54  O   TYR A   8     -25.279  -7.026  24.298  0.00  0.00    +0.000 OA
ATOM     55  CB  TYR A   8     -27.628  -8.513  22.625  0.00  0.00    +0.000 C 
ATOM     56  CG  TYR A   8     -28.946  -7.905  23.074  0.00  0.00    +0.000 A 
ATOM     57  CD1 TYR A   8     -29.933  -7.569  22.152  0.00  0.00    +0.000 A 
ATOM     58  CD2 TYR A   8     -29.218  -7.699  24.426  0.00  0.00    +0.000 A 
ATOM     59  CE1 TYR A   8     -31.156  -7.038  22.562  0.00  0.00    +0.000 A 
ATOM     60  CE2 TYR A   8     -30.440  -7.178  24.848  0.00  0.00    +0.000 A 
ATOM     61  CZ  TYR A   8     -31.405  -6.844  23.912  0.00  0.00    +0.000 A 
ATOM     62  OH  TYR A   8     -32.605  -6.314  24.324  0.00  0.00    +0.000 OA
ATOM     63  HH  TYR A   8     -32.699  -6.327  25.277  0.00  0.00    +0.000 HD
ATOM     64  N   GLY A   9     -26.884  -5.545  23.695  0.00  0.00    +0.000 N 
ATOM     65  H   GLY A   9     -27.595  -5.323  23.015  0.00  0.00    +0.000 HD
ATOM     66  CA  GLY A   9     -26.697  -4.634  24.810  0.00  0.00    +0.000 C 
ATOM     67  C   GLY A   9     -25.471  -3.762  24.667  0.00  0.00    +0.000 C 
ATOM     68  O   GLY A   9     -24.872  -3.670  23.589  0.00  0.00    +0.000 OA
ATOM     69  N   GLN A  10     -25.118  -3.090  25.759  0.00  0.00    +0.000 N 
ATOM     70  H   GLN A  10     -25.637  -3.252  26.618  0.00  0.00    +0.000 HD
ATOM     71  CA  GLN A  10     -23.971  -2.194  25.816  0.00  0.00    +0.000 C 
ATOM     72  C   GLN A  10     -23.084  -2.545  26.987  0.00  0.00    +0.000 C 
ATOM     73  O   GLN A  10     -23.548  -3.105  27.981  0.00  0.00    +0.000 OA
ATOM     74  CB  GLN A  10     -24.424  -0.727  25.900  0.00  0.00    +0.000 C 
ATOM     75  CG  GLN A  10     -24.945  -0.188  24.571  0.00  0.00    +0.000 C 
ATOM     76  CD  GLN A  10     -24.870   1.313  24.479  0.00  0.00    +0.000 C 
ATOM     77  OE1 GLN A  10     -25.465   2.046  25.281  0.00  0.00    +0.000 OA
ATOM     78  NE2 GLN A  10     -24.154   1.805  23.474  0.00  0.00    +0.000 N 
ATOM     79 HE21 GLN A  10     -23.574   1.188  22.915  0.00  0.00    +0.000 HD
ATOM     80 HE22 GLN A  10     -24.105   2.804  23.408  0.00  0.00    +0.000 HD
ATOM     81  N   VAL A  11     -21.798  -2.243  26.855  0.00  0.00    +0.000 N 
ATOM     82  H   VAL A  11     -21.490  -1.710  26.045  0.00  0.00    +0.000 HD
ATOM     83  CA  VAL A  11     -20.846  -2.475  27.934  0.00  0.00    +0.000 C 
ATOM     84  C   VAL A  11     -20.410  -1.108  28.478  0.00  0.00    +0.000 C 
ATOM     85  O   VAL A  11     -20.069  -0.204  27.710  0.00  0.00    +0.000 OA
ATOM     86  CB  VAL A  11     -19.687  -3.457  27.591  0.00  0.00    +0.000 C 
ATOM     87  CG1 VAL A  11     -18.764  -3.673  28.790  0.00  0.00    +0.000 C 
ATOM     88  CG2 VAL A  11     -20.243  -4.800  27.112  0.00  0.00    +0.000 C 
ATOM     89  N   TYR A  12     -20.534  -0.943  29.794  0.00  0.00    +0.000 N 
ATOM     90  H   TYR A  12     -20.885  -1.714  30.349  0.00  0.00    +0.000 HD
ATOM     91  CA  TYR A  12     -20.195   0.285  30.492  0.00  0.00    +0.000 C 
ATOM     92  C   TYR A  12     -18.994   0.106  31.377  0.00  0.00    +0.000 C 
ATOM     93  O   TYR A  12     -18.706  -0.983  31.868  0.00  0.00    +0.000 OA
ATOM     94  CB  TYR A  12     -21.359   0.725  31.411  0.00  0.00    +0.000 C 
ATOM     95  CG  TYR A  12     -22.613   1.164  30.691  0.00  0.00    +0.000 A 
ATOM     96  CD1 TYR A  12     -22.905   2.513  30.518  0.00  0.00    +0.000 A 
ATOM     97  CD2 TYR A  12     -23.521   0.229  30.197  0.00  0.00    +0.000 A 
ATOM     98  CE1 TYR A  12     -24.066   2.924  29.861  0.00  0.00    +0.000 A 
ATOM     99  CE2 TYR A  12     -24.676   0.627  29.526  0.00  0.00    +0.000 A 
ATOM    100  CZ  TYR A  12     -24.940   1.977  29.352  0.00  0.00    +0.000 A 
ATOM    101  OH  TYR A  12     -26.080   2.379  28.696  0.00  0.00    +0.000 OA
ATOM    102  HH  TYR A  12     -25.877   2.954  27.946  0.00  0.00    +0.000 HD
ATOM    103  N   NME A  13     -18.324   1.224  31.616  0.00  0.00    +0.000 N 
ATOM    104  H   NME A  13     -18.644   2.057  31.133  0.00  0.00    +0.000 HD
ATOM    105  C   NME A  13     -17.331   1.420  32.641  0.00  0.00    +0.000 C 
TER 
REMARK  Name = /home/xianyang/aimnet2_score_pipelines/work/L1234-fixed-receptor-eint-20260921/L2/O95819/prepared.pdb
REMARK                            x       y       z     vdW  Elec       q    Type
REMARK                         _______ _______ _______ _____ _____    ______ ____
ATOM      1  CH3 ACE B   1     -13.019   0.416  42.162  0.00  0.00    +0.000 C 
ATOM      2  C   ACE B   1     -13.877   0.264  40.903  0.00  0.00    +0.000 C 
ATOM      3  O   ACE B   1     -15.092   0.125  40.995  0.00  0.00    +0.000 OA
ATOM      4  N   LEU B   2     -13.234   0.334  39.737  0.00  0.00    +0.000 N 
ATOM      5  H   LEU B   2     -12.231   0.398  39.750  0.00  0.00    +0.000 HD
ATOM      6  CA  LEU B   2     -13.904   0.166  38.459  0.00  0.00    +0.000 C 
ATOM      7  C   LEU B   2     -14.251  -1.291  38.208  0.00  0.00    +0.000 C 
ATOM      8  O   LEU B   2     -13.680  -2.205  38.821  0.00  0.00    +0.000 OA
ATOM      9  CB  LEU B   2     -13.083   0.741  37.300  0.00  0.00    +0.000 C 
ATOM     10  CG  LEU B   2     -12.827   2.248  37.349  0.00  0.00    +0.000 C 
ATOM     11  CD1 LEU B   2     -11.801   2.657  36.315  0.00  0.00    +0.000 C 
ATOM     12  CD2 LEU B   2     -14.122   3.045  37.179  0.00  0.00    +0.000 C 
ATOM     13  N   ALA B   3     -15.234  -1.497  37.334  0.00  0.00    +0.000 N 
ATOM     14  H   ALA B   3     -15.672  -0.698  36.898  0.00  0.00    +0.000 HD
ATOM     15  CA  ALA B   3     -15.733  -2.801  36.909  0.00  0.00    +0.000 C 
ATOM     16  C   ALA B   3     -16.378  -2.575  35.551  0.00  0.00    +0.000 C 
ATOM     17  O   ALA B   3     -16.800  -1.460  35.273  0.00  0.00    +0.000 OA
ATOM     18  CB  ALA B   3     -16.775  -3.313  37.895  0.00  0.00    +0.000 C 
ATOM     19  N   ALA B   4     -16.429  -3.597  34.692  0.00  0.00    +0.000 N 
ATOM     20  H   ALA B   4     -16.141  -4.524  34.993  0.00  0.00    +0.000 HD
ATOM     21  CA  ALA B   4     -17.097  -3.438  33.412  0.00  0.00    +0.000 C 
ATOM     22  C   ALA B   4     -18.435  -4.097  33.552  0.00  0.00    +0.000 C 
ATOM     23  O   ALA B   4     -18.560  -5.142  34.210  0.00  0.00    +0.000 OA
ATOM     24  CB  ALA B   4     -16.304  -4.070  32.306  0.00  0.00    +0.000 C 
ATOM     25  N   ILE B   5     -19.467  -3.431  33.031  0.00  0.00    +0.000 N 
ATOM     26  H   ILE B   5     -19.307  -2.542  32.567  0.00  0.00    +0.000 HD
ATOM     27  CA  ILE B   5     -20.819  -3.918  33.208  0.00  0.00    +0.000 C 
ATOM     28  C   ILE B   5     -21.527  -4.065  31.877  0.00  0.00    +0.000 C 
ATOM     29  O   ILE B   5     -21.689  -3.082  31.142  0.00  0.00    +0.000 OA
ATOM     30  CB  ILE B   5     -21.647  -3.081  34.250  0.00  0.00    +0.000 C 
ATOM     31  CG1 ILE B   5     -20.886  -2.883  35.586  0.00  0.00    +0.000 C 
ATOM     32  CG2 ILE B   5     -23.016  -3.735  34.493  0.00  0.00    +0.000 C 
ATOM     33  CD1 ILE B   5     -21.483  -1.805  36.546  0.00  0.00    +0.000 C 
ATOM     34  N   LYS B   6     -21.960  -5.302  31.584  0.00  0.00    +0.000 N 
ATOM     35  H   LYS B   6     -21.796  -6.033  32.273  0.00  0.00    +0.000 HD
ATOM     36  CA  LYS B   6     -22.702  -5.628  30.375  0.00  0.00    +0.000 C 
ATOM     37  C   LYS B   6     -24.160  -5.470  30.739  0.00  0.00    +0.000 C 
ATOM     38  O   LYS B   6     -24.651  -6.178  31.617  0.00  0.00    +0.000 OA
ATOM     39  CB  LYS B   6     -22.379  -7.050  29.879  0.00  0.00    +0.000 C 
ATOM     40  CG  LYS B   6     -22.866  -7.318  28.462  0.00  0.00    +0.000 C 
ATOM     41  CD  LYS B   6     -22.502  -8.713  28.008  0.00  0.00    +0.000 C 
ATOM     42  CE  LYS B   6     -22.853  -8.928  26.560  0.00  0.00    +0.000 C 
ATOM     43  NZ  LYS B   6     -22.565 -10.317  26.130  0.00  0.00    +0.000 N 
ATOM     44  HZ1 LYS B   6     -23.023 -11.008  26.704  0.00  0.00    +0.000 HD
ATOM     45  HZ2 LYS B   6     -22.816 -10.481  25.166  0.00  0.00    +0.000 HD
ATOM     46  HZ3 LYS B   6     -21.568 -10.559  26.143  0.00  0.00    +0.000 HD
ATOM     47  N   VAL B   7     -24.824  -4.481  30.118  0.00  0.00    +0.000 N 
ATOM     48  H   VAL B   7     -24.335  -3.930  29.420  0.00  0.00    +0.000 HD
ATOM     49  CA  VAL B   7     -26.221  -4.151  30.393  0.00  0.00    +0.000 C 
ATOM     50  C   VAL B   7     -27.086  -4.595  29.209  0.00  0.00    +0.000 C 
ATOM     51  O   VAL B   7     -26.863  -4.147  28.079  0.00  0.00    +0.000 OA
ATOM     52  CB  VAL B   7     -26.404  -2.649  30.740  0.00  0.00    +0.000 C 
ATOM     53  CG1 VAL B   7     -27.870  -2.316  31.001  0.00  0.00    +0.000 C 
ATOM     54  CG2 VAL B   7     -25.536  -2.246  31.929  0.00  0.00    +0.000 C 
ATOM     55  N   NME B   8     -28.046  -5.497  29.473  0.00  0.00    +0.000 N 
ATOM     56  H   NME B   8     -28.114  -5.837  30.429  0.00  0.00    +0.000 HD
ATOM     57  C   NME B   8     -28.950  -6.055  28.464  0.00  0.00    +0.000 C 
TER 
REMARK  Name = /home/xianyang/aimnet2_score_pipelines/work/L1234-fixed-receptor-eint-20260921/L2/O95819/prepared.pdb
REMARK                            x       y       z     vdW  Elec       q    Type
REMARK                         _______ _______ _______ _____ _____    ______ ____
ATOM      1  CH3 ACE C   1     -23.135 -20.259  37.162  0.00  0.00    +0.000 C 
ATOM      2  C   ACE C   1     -21.983 -20.654  36.229  0.00  0.00    +0.000 C 
ATOM      3  O   ACE C   1     -20.912 -21.020  36.707  0.00  0.00    +0.000 OA
ATOM      4  N   MET C   2     -22.217 -20.577  34.903  0.00  0.00    +0.000 N 
ATOM      5  H   MET C   2     -23.144 -20.312  34.603  0.00  0.00    +0.000 HD
ATOM      6  CA  MET C   2     -21.222 -20.870  33.873  0.00  0.00    +0.000 C 
ATOM      7  C   MET C   2     -20.134 -19.786  33.917  0.00  0.00    +0.000 C 
ATOM      8  O   MET C   2     -18.952 -20.128  33.969  0.00  0.00    +0.000 OA
ATOM      9  CB  MET C   2     -21.904 -20.952  32.497  0.00  0.00    +0.000 C 
ATOM     10  CG  MET C   2     -21.233 -21.892  31.536  0.00  0.00    +0.000 C 
ATOM     11  SD  MET C   2     -22.347 -22.361  30.187  0.00  0.00    +0.000 S 
ATOM     12  CE  MET C   2     -21.212 -23.288  29.122  0.00  0.00    +0.000 C 
ATOM     13  N   LEU C   3     -20.542 -18.487  34.004  0.00  0.00    +0.000 N 
ATOM     14  H   LEU C   3     -21.528 -18.294  33.928  0.00  0.00    +0.000 HD
ATOM     15  CA  LEU C   3     -19.617 -17.343  34.104  0.00  0.00    +0.000 C 
ATOM     16  C   LEU C   3     -18.760 -17.390  35.364  0.00  0.00    +0.000 C 
ATOM     17  O   LEU C   3     -17.569 -17.088  35.304  0.00  0.00    +0.000 OA
ATOM     18  CB  LEU C   3     -20.358 -15.999  34.070  0.00  0.00    +0.000 C 
ATOM     19  CG  LEU C   3     -20.856 -15.483  32.723  0.00  0.00    +0.000 C 
ATOM     20  CD1 LEU C   3     -21.571 -14.158  32.904  0.00  0.00    +0.000 C 
ATOM     21  CD2 LEU C   3     -19.722 -15.342  31.703  0.00  0.00    +0.000 C 
ATOM     22  N   LYS C   4     -19.377 -17.752  36.502  0.00  0.00    +0.000 N 
ATOM     23  H   LYS C   4     -20.361 -17.954  36.434  0.00  0.00    +0.000 HD
ATOM     24  CA  LYS C   4     -18.737 -17.851  37.808  0.00  0.00    +0.000 C 
ATOM     25  C   LYS C   4     -17.667 -18.941  37.807  0.00  0.00    +0.000 C 
ATOM     26  O   LYS C   4     -16.533 -18.672  38.197  0.00  0.00    +0.000 OA
ATOM     27  CB  LYS C   4     -19.805 -18.103  38.902  0.00  0.00    +0.000 C 
ATOM     28  CG  LYS C   4     -19.264 -18.348  40.320  0.00  0.00    +0.000 C 
ATOM     29  CD  LYS C   4     -18.794 -17.072  41.030  0.00  0.00    +0.000 C 
ATOM     30  CE  LYS C   4     -18.373 -17.323  42.461  0.00  0.00    +0.000 C 
ATOM     31  NZ  LYS C   4     -17.013 -17.922  42.555  0.00  0.00    +0.000 N 
ATOM     32  HZ1 LYS C   4     -16.358 -17.411  41.975  0.00  0.00    +0.000 HD
ATOM     33  HZ2 LYS C   4     -16.680 -17.876  43.514  0.00  0.00    +0.000 HD
ATOM     34  HZ3 LYS C   4     -17.031 -18.898  42.278  0.00  0.00    +0.000 HD
ATOM     35  N   LYS C   5     -18.035 -20.155  37.346  0.00  0.00    +0.000 N 
ATOM     36  H   LYS C   5     -18.993 -20.251  37.026  0.00  0.00    +0.000 HD
ATOM     37  CA  LYS C   5     -17.195 -21.351  37.288  0.00  0.00    +0.000 C 
ATOM     38  C   LYS C   5     -15.934 -21.251  36.449  0.00  0.00    +0.000 C 
ATOM     39  O   LYS C   5     -14.906 -21.802  36.859  0.00  0.00    +0.000 OA
ATOM     40  CB  LYS C   5     -18.005 -22.543  36.753  0.00  0.00    +0.000 C 
ATOM     41  CG  LYS C   5     -18.700 -23.376  37.815  0.00  0.00    +0.000 C 
ATOM     42  CD  LYS C   5     -19.137 -24.732  37.264  0.00  0.00    +0.000 C 
ATOM     43  CE  LYS C   5     -20.463 -24.687  36.537  0.00  0.00    +0.000 C 
ATOM     44  NZ  LYS C   5     -20.733 -25.955  35.811  0.00  0.00    +0.000 N 
ATOM     45  HZ1 LYS C   5     -20.775 -26.734  36.454  0.00  0.00    +0.000 HD
ATOM     46  HZ2 LYS C   5     -21.606 -25.900  35.305  0.00  0.00    +0.000 HD
ATOM     47  HZ3 LYS C   5     -19.992 -26.123  35.134  0.00  0.00    +0.000 HD
ATOM     48  N   TYR C   6     -16.011 -20.635  35.249  0.00  0.00    +0.000 N 
ATOM     49  H   TYR C   6     -16.903 -20.289  34.918  0.00  0.00    +0.000 HD
ATOM     50  CA  TYR C   6     -14.871 -20.679  34.333  0.00  0.00    +0.000 C 
ATOM     51  C   TYR C   6     -14.135 -19.357  34.109  0.00  0.00    +0.000 C 
ATOM     52  O   TYR C   6     -13.293 -19.281  33.204  0.00  0.00    +0.000 OA
ATOM     53  CB  TYR C   6     -15.305 -21.293  32.992  0.00  0.00    +0.000 C 
ATOM     54  CG  TYR C   6     -16.163 -22.537  33.143  0.00  0.00    +0.000 A 
ATOM     55  CD1 TYR C   6     -15.663 -23.685  33.752  0.00  0.00    +0.000 A 
ATOM     56  CD2 TYR C   6     -17.474 -22.565  32.677  0.00  0.00    +0.000 A 
ATOM     57  CE1 TYR C   6     -16.450 -24.827  33.905  0.00  0.00    +0.000 A 
ATOM     58  CE2 TYR C   6     -18.271 -23.699  32.824  0.00  0.00    +0.000 A 
ATOM     59  CZ  TYR C   6     -17.748 -24.835  33.424  0.00  0.00    +0.000 A 
ATOM     60  OH  TYR C   6     -18.515 -25.970  33.556  0.00  0.00    +0.000 OA
ATOM     61  HH  TYR C   6     -17.986 -26.734  33.311  0.00  0.00    +0.000 HD
ATOM     62  N   SER C   7     -14.377 -18.350  34.961  0.00  0.00    +0.000 N 
ATOM     63  H   SER C   7     -15.146 -18.416  35.615  0.00  0.00    +0.000 HD
ATOM     64  CA  SER C   7     -13.688 -17.069  34.839  0.00  0.00    +0.000 C 
ATOM     65  C   SER C   7     -12.428 -16.975  35.701  0.00  0.00    +0.000 C 
ATOM     66  O   SER C   7     -11.678 -15.999  35.573  0.00  0.00    +0.000 OA
ATOM     67  CB  SER C   7     -14.636 -15.914  35.134  0.00  0.00    +0.000 C 
ATOM     68  OG  SER C   7     -15.296 -16.088  36.377  0.00  0.00    +0.000 OA
ATOM     69  HG  SER C   7     -14.636 -16.243  37.058  0.00  0.00    +0.000 HD
ATOM     70  N   HIS C   8     -12.180 -18.003  36.556  0.00  0.00    +0.000 N 
ATOM     71  H   HIS C   8     -12.832 -18.771  36.559  0.00  0.00    +0.000 HD
ATOM     72  CA  HIS C   8     -11.036 -18.077  37.482  0.00  0.00    +0.000 C 
ATOM     73  C   HIS C   8      -9.736 -18.502  36.807  0.00  0.00    +0.000 C 
ATOM     74  O   HIS C   8      -9.217 -19.596  37.058  0.00  0.00    +0.000 OA
ATOM     75  CB  HIS C   8     -11.347 -18.974  38.694  0.00  0.00    +0.000 C 
ATOM     76  CG  HIS C   8     -12.609 -18.606  39.404  0.00  0.00    +0.000 A 
ATOM     77  ND1 HIS C   8     -12.739 -17.398  40.070  0.00  0.00    +0.000 NA
ATOM     78  CD2 HIS C   8     -13.763 -19.301  39.524  0.00  0.00    +0.000 A 
ATOM     79  CE1 HIS C   8     -13.966 -17.396  40.565  0.00  0.00    +0.000 A 
ATOM     80  NE2 HIS C   8     -14.620 -18.521  40.261  0.00  0.00    +0.000 N 
ATOM     81  HE2 HIS C   8     -15.617 -18.587  40.115  0.00  0.00    +0.000 HD
ATOM     82  N   HIS C   9      -9.215 -17.625  35.947  0.00  0.00    +0.000 N 
ATOM     83  H   HIS C   9      -9.748 -16.777  35.757  0.00  0.00    +0.000 HD
ATOM     84  CA  HIS C   9      -7.971 -17.800  35.221  0.00  0.00    +0.000 C 
ATOM     85  C   HIS C   9      -7.514 -16.401  34.870  0.00  0.00    +0.000 C 
ATOM     86  O   HIS C   9      -8.342 -15.557  34.532  0.00  0.00    +0.000 OA
ATOM     87  CB  HIS C   9      -8.184 -18.664  33.969  0.00  0.00    +0.000 C 
ATOM     88  CG  HIS C   9      -6.918 -19.021  33.262  0.00  0.00    +0.000 A 
ATOM     89  ND1 HIS C   9      -6.283 -18.125  32.420  0.00  0.00    +0.000 N 
ATOM     90  HD1 HIS C   9      -6.768 -17.450  31.851  0.00  0.00    +0.000 HD
ATOM     91  CD2 HIS C   9      -6.189 -20.156  33.327  0.00  0.00    +0.000 A 
ATOM     92  CE1 HIS C   9      -5.187 -18.740  32.005  0.00  0.00    +0.000 A 
ATOM     93  NE2 HIS C   9      -5.094 -19.970  32.520  0.00  0.00    +0.000 NA
ATOM     94  N   ARG C  10      -6.208 -16.149  34.986  0.00  0.00    +0.000 N 
ATOM     95  H   ARG C  10      -5.631 -16.916  35.303  0.00  0.00    +0.000 HD
ATOM     96  CA  ARG C  10      -5.558 -14.858  34.723  0.00  0.00    +0.000 C 
ATOM     97  C   ARG C  10      -5.704 -14.344  33.271  0.00  0.00    +0.000 C 
ATOM     98  O   ARG C  10      -5.402 -13.172  33.005  0.00  0.00    +0.000 OA
ATOM     99  CB  ARG C  10      -4.080 -14.914  35.143  0.00  0.00    +0.000 C 
ATOM    100  CG  ARG C  10      -3.235 -15.905  34.348  0.00  0.00    +0.000 C 
ATOM    101  CD  ARG C  10      -1.851 -16.050  34.924  0.00  0.00    +0.000 C 
ATOM    102  NE  ARG C  10      -0.904 -16.493  33.904  0.00  0.00    +0.000 N 
ATOM    103  HE  ARG C  10      -0.875 -17.475  33.678  0.00  0.00    +0.000 HD
ATOM    104  CZ  ARG C  10      -0.103 -15.675  33.229  0.00  0.00    +0.000 C 
ATOM    105  NH1 ARG C  10       0.736 -16.158  32.322  0.00  0.00    +0.000 N 
ATOM    106 HH11 ARG C  10       0.733 -17.143  32.121  0.00  0.00    +0.000 HD
ATOM    107 HH12 ARG C  10       1.339 -15.536  31.816  0.00  0.00    +0.000 HD
ATOM    108  NH2 ARG C  10      -0.115 -14.369  33.476  0.00  0.00    +0.000 N 
ATOM    109 HH21 ARG C  10      -0.722 -14.013  34.188  0.00  0.00    +0.000 HD
ATOM    110 HH22 ARG C  10       0.513 -13.760  32.984  0.00  0.00    +0.000 HD
ATOM    111  N   ASN C  11      -6.149 -15.203  32.342  0.00  0.00    +0.000 N 
ATOM    112  H   ASN C  11      -6.374 -16.129  32.655  0.00  0.00    +0.000 HD
ATOM    113  CA  ASN C  11      -6.357 -14.803  30.934  0.00  0.00    +0.000 C 
ATOM    114  C   ASN C  11      -7.843 -14.674  30.583  0.00  0.00    +0.000 C 
ATOM    115  O   ASN C  11      -8.205 -14.522  29.418  0.00  0.00    +0.000 OA
ATOM    116  CB  ASN C  11      -5.609 -15.714  29.959  0.00  0.00    +0.000 C 
ATOM    117  CG  ASN C  11      -4.113 -15.646  30.075  0.00  0.00    +0.000 C 
ATOM    118  OD1 ASN C  11      -3.442 -16.652  30.264  0.00  0.00    +0.000 OA
ATOM    119  ND2 ASN C  11      -3.542 -14.472  29.916  0.00  0.00    +0.000 N 
ATOM    120 HD21 ASN C  11      -4.111 -13.655  29.706  0.00  0.00    +0.000 HD
ATOM    121 HD22 ASN C  11      -2.546 -14.491  29.766  0.00  0.00    +0.000 HD
ATOM    122  N   ILE C  12      -8.704 -14.736  31.603  0.00  0.00    +0.000 N 
ATOM    123  H   ILE C  12      -8.376 -14.838  32.558  0.00  0.00    +0.000 HD
ATOM    124  CA  ILE C  12     -10.142 -14.563  31.450  0.00  0.00    +0.000 C 
ATOM    125  C   ILE C  12     -10.577 -13.488  32.436  0.00  0.00    +0.000 C 
ATOM    126  O   ILE C  12     -10.242 -13.583  33.613  0.00  0.00    +0.000 OA
ATOM    127  CB  ILE C  12     -10.939 -15.900  31.579  0.00  0.00    +0.000 C 
ATOM    128  CG1 ILE C  12     -10.549 -16.900  30.438  0.00  0.00    +0.000 C 
ATOM    129  CG2 ILE C  12     -12.447 -15.625  31.539  0.00  0.00    +0.000 C 
ATOM    130  CD1 ILE C  12     -10.561 -18.331  30.786  0.00  0.00    +0.000 C 
ATOM    131  N   ALA C  13     -11.265 -12.440  31.962  0.00  0.00    +0.000 N 
ATOM    132  H   ALA C  13     -11.570 -12.455  30.995  0.00  0.00    +0.000 HD
ATOM    133  CA  ALA C  13     -11.774 -11.369  32.817  0.00  0.00    +0.000 C 
ATOM    134  C   ALA C  13     -12.598 -11.988  33.960  0.00  0.00    +0.000 C 
ATOM    135  O   ALA C  13     -13.388 -12.904  33.714  0.00  0.00    +0.000 OA
ATOM    136  CB  ALA C  13     -12.613 -10.403  32.002  0.00  0.00    +0.000 C 
ATOM    137  N   THR C  14     -12.324 -11.560  35.220  0.00  0.00    +0.000 N 
ATOM    138  H   THR C  14     -11.600 -10.854  35.327  0.00  0.00    +0.000 HD
ATOM    139  CA  THR C  14     -12.936 -12.118  36.442  0.00  0.00    +0.000 C 
ATOM    140  C   THR C  14     -14.392 -11.737  36.597  0.00  0.00    +0.000 C 
ATOM    141  O   THR C  14     -14.730 -10.567  36.437  0.00  0.00    +0.000 OA
ATOM    142  CB  THR C  14     -12.098 -11.733  37.675  0.00  0.00    +0.000 C 
ATOM    143  OG1 THR C  14     -10.767 -12.186  37.468  0.00  0.00    +0.000 OA
ATOM    144  HG1 THR C  14     -10.374 -11.605  36.797  0.00  0.00    +0.000 HD
ATOM    145  CG2 THR C  14     -12.618 -12.340  38.968  0.00  0.00    +0.000 C 
ATOM    146  N   TYR C  15     -15.246 -12.722  36.936  0.00  0.00    +0.000 N 
ATOM    147  H   TYR C  15     -14.901 -13.667  37.006  0.00  0.00    +0.000 HD
ATOM    148  CA  TYR C  15     -16.670 -12.491  37.197  0.00  0.00    +0.000 C 
ATOM    149  C   TYR C  15     -16.815 -11.896  38.610  0.00  0.00    +0.000 C 
ATOM    150  O   TYR C  15     -16.231 -12.431  39.558  0.00  0.00    +0.000 OA
ATOM    151  CB  TYR C  15     -17.467 -13.809  37.119  0.00  0.00    +0.000 C 
ATOM    152  CG  TYR C  15     -18.919 -13.674  37.516  0.00  0.00    +0.000 A 
ATOM    153  CD1 TYR C  15     -19.368 -14.123  38.756  0.00  0.00    +0.000 A 
ATOM    154  CD2 TYR C  15     -19.842 -13.069  36.666  0.00  0.00    +0.000 A 
ATOM    155  CE1 TYR C  15     -20.711 -14.007  39.125  0.00  0.00    +0.000 A 
ATOM    156  CE2 TYR C  15     -21.186 -12.948  37.022  0.00  0.00    +0.000 A 
ATOM    157  CZ  TYR C  15     -21.617 -13.423  38.250  0.00  0.00    +0.000 A 
ATOM    158  OH  TYR C  15     -22.937 -13.285  38.601  0.00  0.00    +0.000 OA
ATOM    159  HH  TYR C  15     -23.191 -13.898  39.296  0.00  0.00    +0.000 HD
ATOM    160  N   TYR C  16     -17.588 -10.809  38.742  0.00  0.00    +0.000 N 
ATOM    161  H   TYR C  16     -18.037 -10.412  37.924  0.00  0.00    +0.000 HD
ATOM    162  CA  TYR C  16     -17.825 -10.172  40.035  0.00  0.00    +0.000 C 
ATOM    163  C   TYR C  16     -19.216 -10.566  40.561  0.00  0.00    +0.000 C 
ATOM    164  O   TYR C  16     -19.305 -11.258  41.578  0.00  0.00    +0.000 OA
ATOM    165  CB  TYR C  16     -17.654  -8.642  39.940  0.00  0.00    +0.000 C 
ATOM    166  CG  TYR C  16     -16.239  -8.128  39.737  0.00  0.00    +0.000 A 
ATOM    167  CD1 TYR C  16     -16.000  -6.789  39.453  0.00  0.00    +0.000 A 
ATOM    168  CD2 TYR C  16     -15.135  -8.972  39.882  0.00  0.00    +0.000 A 
ATOM    169  CE1 TYR C  16     -14.704  -6.298  39.306  0.00  0.00    +0.000 A 
ATOM    170  CE2 TYR C  16     -13.829  -8.486  39.761  0.00  0.00    +0.000 A 
ATOM    171  CZ  TYR C  16     -13.619  -7.148  39.468  0.00  0.00    +0.000 A 
ATOM    172  OH  TYR C  16     -12.345  -6.645  39.322  0.00  0.00    +0.000 OA
ATOM    173  HH  TYR C  16     -11.677  -7.292  39.558  0.00  0.00    +0.000 HD
ATOM    174  N   GLY C  17     -20.266 -10.206  39.818  0.00  0.00    +0.000 N 
ATOM    175  H   GLY C  17     -20.101  -9.735  38.935  0.00  0.00    +0.000 HD
ATOM    176  CA  GLY C  17     -21.647 -10.518  40.171  0.00  0.00    +0.000 C 
ATOM    177  C   GLY C  17     -22.677 -10.101  39.139  0.00  0.00    +0.000 C 
ATOM    178  O   GLY C  17     -22.329  -9.499  38.120  0.00  0.00    +0.000 OA
ATOM    179  N   NME C  18     -23.950 -10.477  39.383  0.00  0.00    +0.000 N 
ATOM    180  H   NME C  18     -24.121 -11.006  40.222  0.00  0.00    +0.000 HD
ATOM    181  C   NME C  18     -25.105 -10.187  38.524  0.00  0.00    +0.000 C 
TER 
REMARK  Name = /home/xianyang/aimnet2_score_pipelines/work/L1234-fixed-receptor-eint-20260921/L2/O95819/prepared.pdb
REMARK                            x       y       z     vdW  Elec       q    Type
REMARK                         _______ _______ _______ _____ _____    ______ ____
ATOM      1  CH3 ACE D   1     -29.642  -7.477  33.581  0.00  0.00    +0.000 C 
ATOM      2  C   ACE D   1     -28.265  -6.837  33.484  0.00  0.00    +0.000 C 
ATOM      3  O   ACE D   1     -27.872  -6.350  32.416  0.00  0.00    +0.000 OA
ATOM      4  N   TRP D   2     -27.555  -6.808  34.618  0.00  0.00    +0.000 N 
ATOM      5  H   TRP D   2     -27.937  -7.254  35.437  0.00  0.00    +0.000 HD
ATOM      6  CA  TRP D   2     -26.219  -6.240  34.740  0.00  0.00    +0.000 C 
ATOM      7  C   TRP D   2     -25.257  -7.361  35.080  0.00  0.00    +0.000 C 
ATOM      8  O   TRP D   2     -25.425  -8.032  36.106  0.00  0.00    +0.000 OA
ATOM      9  CB  TRP D   2     -26.190  -5.184  35.858  0.00  0.00    +0.000 C 
ATOM     10  CG  TRP D   2     -26.811  -3.849  35.542  0.00  0.00    +0.000 A 
ATOM     11  CD1 TRP D   2     -27.853  -3.595  34.691  0.00  0.00    +0.000 A 
ATOM     12  CD2 TRP D   2     -26.495  -2.598  36.175  0.00  0.00    +0.000 A 
ATOM     13  NE1 TRP D   2     -28.165  -2.255  34.711  0.00  0.00    +0.000 N 
ATOM     14  HE1 TRP D   2     -28.885  -1.821  34.152  0.00  0.00    +0.000 HD
ATOM     15  CE2 TRP D   2     -27.355  -1.620  35.623  0.00  0.00    +0.000 A 
ATOM     16  CE3 TRP D   2     -25.550  -2.203  37.144  0.00  0.00    +0.000 A 
ATOM     17  CZ2 TRP D   2     -27.309  -0.273  36.020  0.00  0.00    +0.000 A 
ATOM     18  CZ3 TRP D   2     -25.505  -0.872  37.533  0.00  0.00    +0.000 A 
ATOM     19  CH2 TRP D   2     -26.384   0.074  36.983  0.00  0.00    +0.000 A 
ATOM     20  N   LEU D   3     -24.264  -7.589  34.200  0.00  0.00    +0.000 N 
ATOM     21  H   LEU D   3     -24.244  -7.045  33.343  0.00  0.00    +0.000 HD
ATOM     22  CA  LEU D   3     -23.241  -8.606  34.408  0.00  0.00    +0.000 C 
ATOM     23  C   LEU D   3     -21.947  -7.887  34.687  0.00  0.00    +0.000 C 
ATOM     24  O   LEU D   3     -21.424  -7.170  33.832  0.00  0.00    +0.000 OA
ATOM     25  CB  LEU D   3     -23.137  -9.565  33.217  0.00  0.00    +0.000 C 
ATOM     26  CG  LEU D   3     -24.327 -10.508  33.003  0.00  0.00    +0.000 C 
ATOM     27  CD1 LEU D   3     -24.179 -11.225  31.694  0.00  0.00    +0.000 C 
ATOM     28  CD2 LEU D   3     -24.448 -11.544  34.118  0.00  0.00    +0.000 C 
ATOM     29  N   VAL D   4     -21.489  -8.002  35.938  0.00  0.00    +0.000 N 
ATOM     30  H   VAL D   4     -21.983  -8.599  36.595  0.00  0.00    +0.000 HD
ATOM     31  CA  VAL D   4     -20.329  -7.276  36.429  0.00  0.00    +0.000 C 
ATOM     32  C   VAL D   4     -19.101  -8.127  36.408  0.00  0.00    +0.000 C 
ATOM     33  O   VAL D   4     -19.058  -9.210  36.988  0.00  0.00    +0.000 OA
ATOM     34  CB  VAL D   4     -20.580  -6.621  37.809  0.00  0.00    +0.000 C 
ATOM     35  CG1 VAL D   4     -19.478  -5.623  38.142  0.00  0.00    +0.000 C 
ATOM     36  CG2 VAL D   4     -21.947  -5.933  37.838  0.00  0.00    +0.000 C 
ATOM     37  N   MET D   5     -18.086  -7.604  35.764  0.00  0.00    +0.000 N 
ATOM     38  H   MET D   5     -18.194  -6.691  35.330  0.00  0.00    +0.000 HD
ATOM     39  CA  MET D   5     -16.810  -8.271  35.616  0.00  0.00    +0.000 C 
ATOM     40  C   MET D   5     -15.685  -7.275  35.865  0.00  0.00    +0.000 C 
ATOM     41  O   MET D   5     -15.907  -6.062  35.991  0.00  0.00    +0.000 OA
ATOM     42  CB  MET D   5     -16.689  -8.861  34.187  0.00  0.00    +0.000 C 
ATOM     43  CG  MET D   5     -16.445  -7.793  33.130  0.00  0.00    +0.000 C 
ATOM     44  SD  MET D   5     -16.910  -8.231  31.457  0.00  0.00    +0.000 S 
ATOM     45  CE  MET D   5     -18.340  -7.155  31.255  0.00  0.00    +0.000 C 
ATOM     46  N   GLU D   6     -14.469  -7.806  35.851  0.00  0.00    +0.000 N 
ATOM     47  H   GLU D   6     -14.411  -8.818  35.797  0.00  0.00    +0.000 HD
ATOM     48  CA  GLU D   6     -13.222  -7.077  35.965  0.00  0.00    +0.000 C 
ATOM     49  C   GLU D   6     -13.104  -6.039  34.846  0.00  0.00    +0.000 C 
ATOM     50  O   GLU D   6     -13.473  -6.329  33.711  0.00  0.00    +0.000 OA
ATOM     51  CB  GLU D   6     -12.091  -8.092  35.832  0.00  0.00    +0.000 C 
ATOM     52  CG  GLU D   6     -10.738  -7.581  36.247  0.00  0.00    +0.000 C 
ATOM     53  CD  GLU D   6      -9.607  -8.507  35.842  0.00  0.00    +0.000 C 
ATOM     54  OE1 GLU D   6      -9.850  -9.719  35.615  0.00  0.00    +0.000 OA
ATOM     55  OE2 GLU D   6      -8.482  -7.992  35.654  0.00  0.00    +0.000 OA
ATOM     56  N   PHE D   7     -12.595  -4.842  35.168  0.00  0.00    +0.000 N 
ATOM     57  H   PHE D   7     -12.255  -4.695  36.107  0.00  0.00    +0.000 HD
ATOM     58  CA  PHE D   7     -12.389  -3.786  34.193  0.00  0.00    +0.000 C 
ATOM     59  C   PHE D   7     -11.001  -3.906  33.626  0.00  0.00    +0.000 C 
ATOM     60  O   PHE D   7     -10.031  -4.047  34.372  0.00  0.00    +0.000 OA
ATOM     61  CB  PHE D   7     -12.590  -2.395  34.808  0.00  0.00    +0.000 C 
ATOM     62  CG  PHE D   7     -12.667  -1.284  33.781  0.00  0.00    +0.000 A 
ATOM     63  CD1 PHE D   7     -13.765  -1.169  32.938  0.00  0.00    +0.000 A 
ATOM     64  CD2 PHE D   7     -11.638  -0.357  33.659  0.00  0.00    +0.000 A 
ATOM     65  CE1 PHE D   7     -13.833  -0.153  31.989  0.00  0.00    +0.000 A 
ATOM     66  CE2 PHE D   7     -11.717   0.679  32.716  0.00  0.00    +0.000 A 
ATOM     67  CZ  PHE D   7     -12.803   0.760  31.874  0.00  0.00    +0.000 A 
ATOM     68  N   CYS D   8     -10.906  -3.873  32.300  0.00  0.00    +0.000 N 
ATOM     69  H   CYS D   8     -11.748  -3.830  31.747  0.00  0.00    +0.000 HD
ATOM     70  CA  CYS D   8      -9.624  -3.943  31.605  0.00  0.00    +0.000 C 
ATOM     71  C   CYS D   8      -9.466  -2.604  30.923  0.00  0.00    +0.000 C 
ATOM     72  O   CYS D   8      -9.905  -2.419  29.791  0.00  0.00    +0.000 OA
ATOM     73  CB  CYS D   8      -9.581  -5.113  30.621  0.00  0.00    +0.000 C 
ATOM     74  SG  CYS D   8     -10.054  -6.708  31.343  0.00  0.00    +0.000 S 
ATOM     75  HG  CYS D   8      -9.311  -6.635  32.456  0.00  0.00    +0.000 HD
ATOM     76  N   GLY D   9      -8.929  -1.662  31.691  0.00  0.00    +0.000 N 
ATOM     77  H   GLY D   9      -8.696  -1.933  32.635  0.00  0.00    +0.000 HD
ATOM     78  CA  GLY D   9      -8.716  -0.260  31.333  0.00  0.00    +0.000 C 
ATOM     79  C   GLY D   9      -8.049   0.103  30.018  0.00  0.00    +0.000 C 
ATOM     80  O   GLY D   9      -8.374   1.141  29.441  0.00  0.00    +0.000 OA
ATOM     81  N   ALA D  10      -7.088  -0.702  29.545  0.00  0.00    +0.000 N 
ATOM     82  H   ALA D  10      -6.940  -1.612  29.959  0.00  0.00    +0.000 HD
ATOM     83  CA  ALA D  10      -6.389  -0.394  28.293  0.00  0.00    +0.000 C 
ATOM     84  C   ALA D  10      -7.157  -0.787  27.009  0.00  0.00    +0.000 C 
ATOM     85  O   ALA D  10      -6.655  -0.560  25.913  0.00  0.00    +0.000 OA
ATOM     86  CB  ALA D  10      -4.992  -0.995  28.299  0.00  0.00    +0.000 C 
ATOM     87  N   GLY D  11      -8.379  -1.299  27.159  0.00  0.00    +0.000 N 
ATOM     88  H   GLY D  11      -8.707  -1.492  28.095  0.00  0.00    +0.000 HD
ATOM     89  CA  GLY D  11      -9.255  -1.655  26.047  0.00  0.00    +0.000 C 
ATOM     90  C   GLY D  11      -8.874  -2.878  25.231  0.00  0.00    +0.000 C 
ATOM     91  O   GLY D  11      -8.035  -3.690  25.639  0.00  0.00    +0.000 OA
ATOM     92  N   SER D  12      -9.498  -3.003  24.055  0.00  0.00    +0.000 N 
ATOM     93  H   SER D  12     -10.054  -2.221  23.724  0.00  0.00    +0.000 HD
ATOM     94  CA  SER D  12      -9.326  -4.154  23.165  0.00  0.00    +0.000 C 
ATOM     95  C   SER D  12      -8.046  -4.143  22.334  0.00  0.00    +0.000 C 
ATOM     96  O   SER D  12      -7.441  -3.096  22.108  0.00  0.00    +0.000 OA
ATOM     97  CB  SER D  12     -10.545  -4.311  22.258  0.00  0.00    +0.000 C 
ATOM     98  OG  SER D  12     -10.557  -3.318  21.245  0.00  0.00    +0.000 OA
ATOM     99  HG  SER D  12     -10.771  -2.450  21.651  0.00  0.00    +0.000 HD
ATOM    100  N   ILE D  13      -7.677  -5.320  21.818  0.00  0.00    +0.000 N 
ATOM    101  H   ILE D  13      -8.181  -6.160  22.095  0.00  0.00    +0.000 HD
ATOM    102  CA  ILE D  13      -6.524  -5.418  20.947  0.00  0.00    +0.000 C 
ATOM    103  C   ILE D  13      -6.881  -4.792  19.570  0.00  0.00    +0.000 C 
ATOM    104  O   ILE D  13      -5.983  -4.279  18.914  0.00  0.00    +0.000 OA
ATOM    105  CB  ILE D  13      -5.895  -6.821  20.927  0.00  0.00    +0.000 C 
ATOM    106  CG1 ILE D  13      -6.790  -7.851  20.358  0.00  0.00    +0.000 C 
ATOM    107  CG2 ILE D  13      -5.405  -7.216  22.325  0.00  0.00    +0.000 C 
ATOM    108  CD1 ILE D  13      -6.215  -8.308  19.126  0.00  0.00    +0.000 C 
ATOM    109  N   THR D  14      -8.196  -4.698  19.213  0.00  0.00    +0.000 N 
ATOM    110  H   THR D  14      -8.878  -5.001  19.897  0.00  0.00    +0.000 HD
ATOM    111  CA  THR D  14      -8.670  -4.012  17.993  0.00  0.00    +0.000 C 
ATOM    112  C   THR D  14      -8.280  -2.519  18.057  0.00  0.00    +0.000 C 
ATOM    113  O   THR D  14      -7.783  -1.967  17.071  0.00  0.00    +0.000 OA
ATOM    114  CB  THR D  14     -10.182  -4.215  17.795  0.00  0.00    +0.000 C 
ATOM    115  OG1 THR D  14     -10.410  -5.584  17.517  0.00  0.00    +0.000 OA
ATOM    116  HG1 THR D  14      -9.776  -6.043  18.064  0.00  0.00    +0.000 HD
ATOM    117  CG2 THR D  14     -10.765  -3.378  16.644  0.00  0.00    +0.000 C 
ATOM    118  N   ASP D  15      -8.505  -1.889  19.237  0.00  0.00    +0.000 N 
ATOM    119  H   ASP D  15      -8.940  -2.415  19.983  0.00  0.00    +0.000 HD
ATOM    120  CA  ASP D  15      -8.160  -0.502  19.538  0.00  0.00    +0.000 C 
ATOM    121  C   ASP D  15      -6.646  -0.329  19.479  0.00  0.00    +0.000 C 
ATOM    122  O   ASP D  15      -6.170   0.608  18.838  0.00  0.00    +0.000 OA
ATOM    123  CB  ASP D  15      -8.695  -0.094  20.927  0.00  0.00    +0.000 C 
ATOM    124  CG  ASP D  15     -10.205  -0.135  21.102  0.00  0.00    +0.000 C 
ATOM    125  OD1 ASP D  15     -10.934   0.153  20.112  0.00  0.00    +0.000 OA
ATOM    126  OD2 ASP D  15     -10.662  -0.428  22.237  0.00  0.00    +0.000 OA
ATOM    127  N   LEU D  16      -5.893  -1.260  20.101  0.00  0.00    +0.000 N 
ATOM    128  H   LEU D  16      -6.381  -1.972  20.631  0.00  0.00    +0.000 HD
ATOM    129  CA  LEU D  16      -4.429  -1.266  20.111  0.00  0.00    +0.000 C 
ATOM    130  C   LEU D  16      -3.832  -1.134  18.703  0.00  0.00    +0.000 C 
ATOM    131  O   LEU D  16      -3.032  -0.215  18.503  0.00  0.00    +0.000 OA
ATOM    132  CB  LEU D  16      -3.886  -2.507  20.849  0.00  0.00    +0.000 C 
ATOM    133  CG  LEU D  16      -2.374  -2.530  21.166  0.00  0.00    +0.000 C 
ATOM    134  CD1 LEU D  16      -2.023  -1.609  22.329  0.00  0.00    +0.000 C 
ATOM    135  CD2 LEU D  16      -1.905  -3.926  21.476  0.00  0.00    +0.000 C 
ATOM    136  N   NME D  17      -4.274  -1.994  17.720  0.00  0.00    +0.000 N 
ATOM    137  H   NME D  17      -4.999  -2.655  17.976  0.00  0.00    +0.000 HD
ATOM    138  C   NME D  17      -3.803  -1.953  16.315  0.00  0.00    +0.000 C 
TER 
REMARK  Name = /home/xianyang/aimnet2_score_pipelines/work/L1234-fixed-receptor-eint-20260921/L2/O95819/prepared.pdb
REMARK                            x       y       z     vdW  Elec       q    Type
REMARK                         _______ _______ _______ _____ _____    ______ ____
ATOM      1  CH3 ACE E   1     -11.751 -11.564  17.916  0.00  0.00    +0.000 C 
ATOM      2  C   ACE E   1     -11.040 -10.510  18.719  0.00  0.00    +0.000 C 
ATOM      3  O   ACE E   1     -11.111 -10.568  19.941  0.00  0.00    +0.000 OA
ATOM      4  N   GLY E   2     -10.386  -9.559  18.046  0.00  0.00    +0.000 N 
ATOM      5  H   GLY E   2     -10.360  -9.617  17.039  0.00  0.00    +0.000 HD
ATOM      6  CA  GLY E   2      -9.660  -8.475  18.698  0.00  0.00    +0.000 C 
ATOM      7  C   GLY E   2     -10.478  -7.663  19.679  0.00  0.00    +0.000 C 
ATOM      8  O   GLY E   2      -9.948  -7.199  20.685  0.00  0.00    +0.000 OA
ATOM      9  N   GLN E   3     -11.790  -7.520  19.403  0.00  0.00    +0.000 N 
ATOM     10  H   GLN E   3     -12.141  -7.900  18.539  0.00  0.00    +0.000 HD
ATOM     11  CA  GLN E   3     -12.726  -6.821  20.270  0.00  0.00    +0.000 C 
ATOM     12  C   GLN E   3     -12.967  -7.566  21.577  0.00  0.00    +0.000 C 
ATOM     13  O   GLN E   3     -13.243  -6.939  22.593  0.00  0.00    +0.000 OA
ATOM     14  CB  GLN E   3     -14.054  -6.561  19.539  0.00  0.00    +0.000 C 
ATOM     15  CG  GLN E   3     -14.063  -5.221  18.796  0.00  0.00    +0.000 C 
ATOM     16  CD  GLN E   3     -13.933  -4.022  19.724  0.00  0.00    +0.000 C 
ATOM     17  OE1 GLN E   3     -14.659  -3.883  20.721  0.00  0.00    +0.000 OA
ATOM     18  NE2 GLN E   3     -13.007  -3.124  19.415  0.00  0.00    +0.000 N 
ATOM     19 HE21 GLN E   3     -12.892  -2.352  20.059  0.00  0.00    +0.000 HD
ATOM     20 HE22 GLN E   3     -12.506  -3.149  18.540  0.00  0.00    +0.000 HD
ATOM     21  N   ASN E   4     -12.837  -8.888  21.567  0.00  0.00    +0.000 N 
ATOM     22  H   ASN E   4     -12.522  -9.364  20.734  0.00  0.00    +0.000 HD
ATOM     23  CA  ASN E   4     -13.060  -9.675  22.776  0.00  0.00    +0.000 C 
ATOM     24  C   ASN E   4     -11.744 -10.052  23.485  0.00  0.00    +0.000 C 
ATOM     25  O   ASN E   4     -11.757 -10.838  24.433  0.00  0.00    +0.000 OA
ATOM     26  CB  ASN E   4     -13.961 -10.903  22.487  0.00  0.00    +0.000 C 
ATOM     27  CG  ASN E   4     -15.422 -10.553  22.272  0.00  0.00    +0.000 C 
ATOM     28  OD1 ASN E   4     -15.901  -9.517  22.728  0.00  0.00    +0.000 OA
ATOM     29  ND2 ASN E   4     -16.175 -11.404  21.590  0.00  0.00    +0.000 N 
ATOM     30 HD21 ASN E   4     -15.826 -12.317  21.377  0.00  0.00    +0.000 HD
ATOM     31 HD22 ASN E   4     -17.161 -11.198  21.619  0.00  0.00    +0.000 HD
ATOM     32  N   VAL E   5     -10.624  -9.470  23.055  0.00  0.00    +0.000 N 
ATOM     33  H   VAL E   5     -10.677  -8.793  22.306  0.00  0.00    +0.000 HD
ATOM     34  CA  VAL E   5      -9.326  -9.703  23.691  0.00  0.00    +0.000 C 
ATOM     35  C   VAL E   5      -8.923  -8.357  24.276  0.00  0.00    +0.000 C 
ATOM     36  O   VAL E   5      -8.761  -7.393  23.530  0.00  0.00    +0.000 OA
ATOM     37  CB  VAL E   5      -8.262 -10.307  22.742  0.00  0.00    +0.000 C 
ATOM     38  CG1 VAL E   5      -6.962 -10.571  23.489  0.00  0.00    +0.000 C 
ATOM     39  CG2 VAL E   5      -8.767 -11.596  22.099  0.00  0.00    +0.000 C 
ATOM     40  N   LEU E   6      -8.857  -8.273  25.619  0.00  0.00    +0.000 N 
ATOM     41  H   LEU E   6      -9.041  -9.097  26.181  0.00  0.00    +0.000 HD
ATOM     42  CA  LEU E   6      -8.604  -7.004  26.320  0.00  0.00    +0.000 C 
ATOM     43  C   LEU E   6      -7.283  -6.898  27.059  0.00  0.00    +0.000 C 
ATOM     44  O   LEU E   6      -6.717  -7.901  27.496  0.00  0.00    +0.000 OA
ATOM     45  CB  LEU E   6      -9.754  -6.688  27.295  0.00  0.00    +0.000 C 
ATOM     46  CG  LEU E   6     -11.193  -6.833  26.781  0.00  0.00    +0.000 C 
ATOM     47  CD1 LEU E   6     -12.167  -6.582  27.873  0.00  0.00    +0.000 C 
ATOM     48  CD2 LEU E   6     -11.481  -5.901  25.629  0.00  0.00    +0.000 C 
ATOM     49  N   LEU E   7      -6.830  -5.651  27.235  0.00  0.00    +0.000 N 
ATOM     50  H   LEU E   7      -7.361  -4.890  26.819  0.00  0.00    +0.000 HD
ATOM     51  CA  LEU E   7      -5.620  -5.281  27.974  0.00  0.00    +0.000 C 
ATOM     52  C   LEU E   7      -5.974  -4.478  29.227  0.00  0.00    +0.000 C 
ATOM     53  O   LEU E   7      -6.867  -3.623  29.188  0.00  0.00    +0.000 OA
ATOM     54  CB  LEU E   7      -4.691  -4.415  27.102  0.00  0.00    +0.000 C 
ATOM     55  CG  LEU E   7      -4.002  -5.065  25.921  0.00  0.00    +0.000 C 
ATOM     56  CD1 LEU E   7      -3.561  -4.005  24.930  0.00  0.00    +0.000 C 
ATOM     57  CD2 LEU E   7      -2.811  -5.899  26.379  0.00  0.00    +0.000 C 
ATOM     58  N   NME E   8      -5.256  -4.741  30.329  0.00  0.00    +0.000 N 
ATOM     59  H   NME E   8      -4.549  -5.458  30.275  0.00  0.00    +0.000 HD
ATOM     60  C   NME E   8      -5.403  -3.996  31.589  0.00  0.00    +0.000 C 
TER 
REMARK  Name = /home/xianyang/aimnet2_score_pipelines/work/L1234-fixed-receptor-eint-20260921/L2/O95819/prepared.pdb
REMARK                            x       y       z     vdW  Elec       q    Type
REMARK                         _______ _______ _______ _____ _____    ______ ____
ATOM      1  CH3 ACE F   1      -4.245 -10.043  28.405  0.00  0.00    +0.000 C 
ATOM      2  C   ACE F   1      -5.405 -10.890  28.948  0.00  0.00    +0.000 C 
ATOM      3  O   ACE F   1      -5.186 -11.911  29.593  0.00  0.00    +0.000 OA
ATOM      4  N   LYS F   2      -6.649 -10.450  28.690  0.00  0.00    +0.000 N 
ATOM      5  H   LYS F   2      -6.763  -9.591  28.157  0.00  0.00    +0.000 HD
ATOM      6  CA  LYS F   2      -7.842 -11.128  29.191  0.00  0.00    +0.000 C 
ATOM      7  C   LYS F   2      -8.949 -11.283  28.163  0.00  0.00    +0.000 C 
ATOM      8  O   LYS F   2      -9.262 -10.348  27.438  0.00  0.00    +0.000 OA
ATOM      9  CB  LYS F   2      -8.356 -10.432  30.461  0.00  0.00    +0.000 C 
ATOM     10  CG  LYS F   2      -7.537 -10.825  31.698  0.00  0.00    +0.000 C 
ATOM     11  CD  LYS F   2      -7.684  -9.851  32.825  0.00  0.00    +0.000 C 
ATOM     12  CE  LYS F   2      -6.530  -9.965  33.788  0.00  0.00    +0.000 C 
ATOM     13  NZ  LYS F   2      -6.634 -11.162  34.663  0.00  0.00    +0.000 N 
ATOM     14  HZ1 LYS F   2      -6.521 -11.995  34.097  0.00  0.00    +0.000 HD
ATOM     15  HZ2 LYS F   2      -5.941 -11.125  35.393  0.00  0.00    +0.000 HD
ATOM     16  HZ3 LYS F   2      -7.559 -11.148  35.091  0.00  0.00    +0.000 HD
ATOM     17  N   LEU F   3      -9.541 -12.477  28.111  0.00  0.00    +0.000 N 
ATOM     18  H   LEU F   3      -9.187 -13.218  28.700  0.00  0.00    +0.000 HD
ATOM     19  CA  LEU F   3     -10.649 -12.790  27.210  0.00  0.00    +0.000 C 
ATOM     20  C   LEU F   3     -11.980 -12.398  27.832  0.00  0.00    +0.000 C 
ATOM     21  O   LEU F   3     -12.226 -12.630  29.015  0.00  0.00    +0.000 OA
ATOM     22  CB  LEU F   3     -10.699 -14.286  26.844  0.00  0.00    +0.000 C 
ATOM     23  CG  LEU F   3      -9.484 -14.926  26.161  0.00  0.00    +0.000 C 
ATOM     24  CD1 LEU F   3      -9.749 -16.386  25.901  0.00  0.00    +0.000 C 
ATOM     25  CD2 LEU F   3      -9.116 -14.223  24.861  0.00  0.00    +0.000 C 
ATOM     26  N   VAL F   4     -12.885 -11.940  27.003  0.00  0.00    +0.000 N 
ATOM     27  H   VAL F   4     -12.642 -11.799  26.026  0.00  0.00    +0.000 HD
ATOM     28  CA  VAL F   4     -14.212 -11.541  27.440  0.00  0.00    +0.000 C 
ATOM     29  C   VAL F   4     -15.288 -12.160  26.528  0.00  0.00    +0.000 C 
ATOM     30  O   VAL F   4     -14.983 -12.569  25.402  0.00  0.00    +0.000 OA
ATOM     31  CB  VAL F   4     -14.205  -9.995  27.485  0.00  0.00    +0.000 C 
ATOM     32  CG1 VAL F   4     -14.817  -9.339  26.255  0.00  0.00    +0.000 C 
ATOM     33  CG2 VAL F   4     -14.767  -9.470  28.781  0.00  0.00    +0.000 C 
ATOM     34  N   ASP F   5     -16.521 -12.272  27.035  0.00  0.00    +0.000 N 
ATOM     35  H   ASP F   5     -16.670 -11.919  27.965  0.00  0.00    +0.000 HD
ATOM     36  CA  ASP F   5     -17.704 -12.709  26.290  0.00  0.00    +0.000 C 
ATOM     37  C   ASP F   5     -17.642 -14.159  25.736  0.00  0.00    +0.000 C 
ATOM     38  O   ASP F   5     -18.078 -14.423  24.600  0.00  0.00    +0.000 OA
ATOM     39  CB  ASP F   5     -18.025 -11.691  25.162  0.00  0.00    +0.000 C 
ATOM     40  CG  ASP F   5     -19.494 -11.520  24.812  0.00  0.00    +0.000 C 
ATOM     41  OD1 ASP F   5     -20.351 -12.082  25.536  0.00  0.00    +0.000 OA
ATOM     42  OD2 ASP F   5     -19.787 -10.815  23.823  0.00  0.00    +0.000 OA
ATOM     43  N   PHE F   6     -17.185 -15.110  26.580  0.00  0.00    +0.000 N 
ATOM     44  H   PHE F   6     -16.918 -14.850  27.514  0.00  0.00    +0.000 HD
ATOM     45  CA  PHE F   6     -17.203 -16.519  26.215  0.00  0.00    +0.000 C 
ATOM     46  C   PHE F   6     -18.654 -16.983  26.287  0.00  0.00    +0.000 C 
ATOM     47  O   PHE F   6     -19.421 -16.464  27.109  0.00  0.00    +0.000 OA
ATOM     48  CB  PHE F   6     -16.238 -17.382  27.064  0.00  0.00    +0.000 C 
ATOM     49  CG  PHE F   6     -16.473 -17.459  28.554  0.00  0.00    +0.000 A 
ATOM     50  CD1 PHE F   6     -17.322 -18.424  29.093  0.00  0.00    +0.000 A 
ATOM     51  CD2 PHE F   6     -15.772 -16.633  29.428  0.00  0.00    +0.000 A 
ATOM     52  CE1 PHE F   6     -17.520 -18.510  30.480  0.00  0.00    +0.000 A 
ATOM     53  CE2 PHE F   6     -15.960 -16.728  30.811  0.00  0.00    +0.000 A 
ATOM     54  CZ  PHE F   6     -16.838 -17.659  31.330  0.00  0.00    +0.000 A 
ATOM     55  N   GLY F   7     -19.032 -17.870  25.366  0.00  0.00    +0.000 N 
ATOM     56  H   GLY F   7     -18.338 -18.200  24.716  0.00  0.00    +0.000 HD
ATOM     57  CA  GLY F   7     -20.396 -18.373  25.231  0.00  0.00    +0.000 C 
ATOM     58  C   GLY F   7     -20.904 -19.112  26.450  0.00  0.00    +0.000 C 
ATOM     59  O   GLY F   7     -20.219 -19.997  26.969  0.00  0.00    +0.000 OA
ATOM     60  N   VAL F   8     -22.103 -18.744  26.921  0.00  0.00    +0.000 N 
ATOM     61  H   VAL F   8     -22.518 -17.911  26.536  0.00  0.00    +0.000 HD
ATOM     62  CA  VAL F   8     -22.740 -19.353  28.098  0.00  0.00    +0.000 C 
ATOM     63  C   VAL F   8     -24.206 -19.766  27.826  0.00  0.00    +0.000 C 
ATOM     64  O   VAL F   8     -24.893 -20.225  28.739  0.00  0.00    +0.000 OA
ATOM     65  CB  VAL F   8     -22.609 -18.471  29.381  0.00  0.00    +0.000 C 
ATOM     66  CG1 VAL F   8     -21.177 -18.459  29.910  0.00  0.00    +0.000 C 
ATOM     67  CG2 VAL F   8     -23.127 -17.052  29.152  0.00  0.00    +0.000 C 
ATOM     68  N   SER F   9     -24.664 -19.619  26.570  0.00  0.00    +0.000 N 
ATOM     69  H   SER F   9     -23.985 -19.378  25.871  0.00  0.00    +0.000 HD
ATOM     70  CA  SER F   9     -26.038 -19.872  26.132  0.00  0.00    +0.000 C 
ATOM     71  C   SER F   9     -26.329 -21.337  25.766  0.00  0.00    +0.000 C 
ATOM     72  O   SER F   9     -25.535 -22.223  26.084  0.00  0.00    +0.000 OA
ATOM     73  CB  SER F   9     -26.388 -18.930  24.975  0.00  0.00    +0.000 C 
ATOM     74  OG  SER F   9     -27.784 -18.831  24.734  0.00  0.00    +0.000 OA
ATOM     75  HG  SER F   9     -27.949 -18.092  24.139  0.00  0.00    +0.000 HD
ATOM     76  N   NME F  10     -27.517 -21.568  25.142  0.00  0.00    +0.000 N 
ATOM     77  H   NME F  10     -28.063 -20.728  24.988  0.00  0.00    +0.000 HD
ATOM     78  C   NME F  10     -28.099 -22.812  24.608  0.00  0.00    +0.000 C 
TER 
