REMARK  Name = /data/user_data/xianyang/t3-aimnet-affinity-balanced/L3/P28347/pocket.pdb
REMARK                            x       y       z     vdW  Elec       q    Type
REMARK                         _______ _______ _______ _____ _____    ______ ____
ATOM      1  N   LEU A   1      -1.727  17.573  67.161  0.00  0.00    +0.000 N 
ATOM      2  CA  LEU A   1      -2.511  16.571  67.860  0.00  0.00    +0.000 C 
ATOM      3  C   LEU A   1      -1.646  16.141  69.010  0.00  0.00    +0.000 C 
ATOM      4  O   LEU A   1      -0.515  15.697  68.822  0.00  0.00    +0.000 OA
ATOM      5  CB  LEU A   1      -2.840  15.368  66.987  0.00  0.00    +0.000 C 
ATOM      6  CG  LEU A   1      -3.610  14.272  67.700  0.00  0.00    +0.000 C 
ATOM      7  CD2 LEU A   1      -4.958  14.765  68.160  0.00  0.00    +0.000 C 
ATOM      8  CD1 LEU A   1      -3.819  13.083  66.794  0.00  0.00    +0.000 C 
ATOM      9  H   LEU A   1      -2.253  17.917  66.358  0.00  0.00    +0.000 HD
ATOM     10  H   LEU A   1      -0.852  17.158  66.841  0.00  0.00    +0.000 HD
ATOM     11  H   LEU A   1      -1.525  18.348  67.793  0.00  0.00    +0.000 HD
TER 
REMARK  Name = /data/user_data/xianyang/t3-aimnet-affinity-balanced/L3/P28347/pocket.pdb
REMARK                            x       y       z     vdW  Elec       q    Type
REMARK                         _______ _______ _______ _____ _____    ______ ____
ATOM      1  N   GLU B   1      -3.156  14.358  71.831  0.00  0.00    +0.000 N 
ATOM      2  CA  GLU B   1      -3.685  13.116  72.334  0.00  0.00    +0.000 C 
ATOM      3  C   GLU B   1      -4.928  12.727  71.613  0.00  0.00    +0.000 C 
ATOM      4  O   GLU B   1      -5.737  13.567  71.234  0.00  0.00    +0.000 OA
ATOM      5  CB  GLU B   1      -3.994  13.254  73.832  0.00  0.00    +0.000 C 
ATOM      6  CG  GLU B   1      -4.013  11.942  74.608  0.00  0.00    +0.000 C 
ATOM      7  CD  GLU B   1      -5.399  11.424  74.960  0.00  0.00    +0.000 C 
ATOM      8  OE1 GLU B   1      -6.387  12.180  74.794  0.00  0.00    +0.000 OA
ATOM      9  OE2 GLU B   1      -5.496  10.245  75.375  0.00  0.00    +0.000 OA
ATOM     10  N   PHE B   2      -5.084  11.435  71.428  0.00  0.00    +0.000 N 
ATOM     11  CA  PHE B   2      -6.291  10.851  70.878  0.00  0.00    +0.000 C 
ATOM     12  C   PHE B   2      -6.450   9.496  71.575  0.00  0.00    +0.000 C 
ATOM     13  O   PHE B   2      -5.453   8.829  71.845  0.00  0.00    +0.000 OA
ATOM     14  CB  PHE B   2      -6.202  10.698  69.336  0.00  0.00    +0.000 C 
ATOM     15  CG  PHE B   2      -7.180   9.696  68.775  0.00  0.00    +0.000 A 
ATOM     16  CD2 PHE B   2      -8.531   9.980  68.725  0.00  0.00    +0.000 A 
ATOM     17  CD1 PHE B   2      -6.766   8.424  68.427  0.00  0.00    +0.000 A 
ATOM     18  CE2 PHE B   2      -9.439   9.030  68.286  0.00  0.00    +0.000 A 
ATOM     19  CE1 PHE B   2      -7.676   7.477  67.989  0.00  0.00    +0.000 A 
ATOM     20  CZ  PHE B   2      -9.002   7.794  67.891  0.00  0.00    +0.000 A 
ATOM     21  H   GLU B   1      -2.952  14.263  70.836  0.00  0.00    +0.000 HD
ATOM     22  H   GLU B   1      -2.299  14.591  72.333  0.00  0.00    +0.000 HD
ATOM     23  H   GLU B   1      -3.842  15.100  71.968  0.00  0.00    +0.000 HD
ATOM     24  H   PHE B   2      -4.344  10.834  71.675  0.00  0.00    +0.000 HD
TER 
REMARK  Name = /data/user_data/xianyang/t3-aimnet-affinity-balanced/L3/P28347/pocket.pdb
REMARK                            x       y       z     vdW  Elec       q    Type
REMARK                         _______ _______ _______ _____ _____    ______ ____
ATOM      1  N   ALA C   1      -9.681   6.276  71.797  0.00  0.00    +0.000 N 
ATOM      2  CA  ALA C   1     -11.049   5.795  71.697  0.00  0.00    +0.000 C 
ATOM      3  C   ALA C   1     -11.127   4.721  72.780  0.00  0.00    +0.000 C 
ATOM      4  O   ALA C   1     -10.250   3.852  72.850  0.00  0.00    +0.000 OA
ATOM      5  CB  ALA C   1     -11.307   5.199  70.326  0.00  0.00    +0.000 C 
ATOM      6  H   ALA C   1      -9.526   7.008  71.104  0.00  0.00    +0.000 HD
ATOM      7  H   ALA C   1      -9.036   5.504  71.627  0.00  0.00    +0.000 HD
ATOM      8  H   ALA C   1      -9.521   6.653  72.731  0.00  0.00    +0.000 HD
TER 
REMARK  Name = /data/user_data/xianyang/t3-aimnet-affinity-balanced/L3/P28347/pocket.pdb
REMARK                            x       y       z     vdW  Elec       q    Type
REMARK                         _______ _______ _______ _____ _____    ______ ____
ATOM      1  N   PHE D   1      -9.087   1.172  72.846  0.00  0.00    +0.000 N 
ATOM      2  CA  PHE D   1      -9.067   0.424  71.601  0.00  0.00    +0.000 C 
ATOM      3  C   PHE D   1      -7.868   0.941  70.788  0.00  0.00    +0.000 C 
ATOM      4  O   PHE D   1      -7.093   0.160  70.259  0.00  0.00    +0.000 OA
ATOM      5  CB  PHE D   1     -10.367   0.670  70.825  0.00  0.00    +0.000 C 
ATOM      6  CG  PHE D   1     -11.633   0.265  71.523  0.00  0.00    +0.000 A 
ATOM      7  CD1 PHE D   1     -11.959  -1.072  71.677  0.00  0.00    +0.000 A 
ATOM      8  CD2 PHE D   1     -12.543   1.217  71.941  0.00  0.00    +0.000 A 
ATOM      9  CE1 PHE D   1     -13.141  -1.445  72.293  0.00  0.00    +0.000 A 
ATOM     10  CE2 PHE D   1     -13.730   0.839  72.547  0.00  0.00    +0.000 A 
ATOM     11  CZ  PHE D   1     -14.019  -0.488  72.722  0.00  0.00    +0.000 A 
ATOM     12  N   VAL D   2      -7.731   2.264  70.681  0.00  0.00    +0.000 N 
ATOM     13  CA  VAL D   2      -6.645   2.928  69.972  0.00  0.00    +0.000 C 
ATOM     14  C   VAL D   2      -6.265   4.190  70.780  0.00  0.00    +0.000 C 
ATOM     15  O   VAL D   2      -7.089   4.751  71.494  0.00  0.00    +0.000 OA
ATOM     16  CB  VAL D   2      -7.021   3.285  68.490  0.00  0.00    +0.000 C 
ATOM     17  CG1 VAL D   2      -7.043   2.057  67.592  0.00  0.00    +0.000 C 
ATOM     18  CG2 VAL D   2      -8.353   4.025  68.406  0.00  0.00    +0.000 C 
ATOM     19  H   PHE D   1      -8.220   1.004  73.357  0.00  0.00    +0.000 HD
ATOM     20  H   PHE D   1      -9.880   0.869  73.412  0.00  0.00    +0.000 HD
ATOM     21  H   PHE D   1      -9.175   2.168  72.643  0.00  0.00    +0.000 HD
ATOM     22  H   VAL D   2      -8.411   2.831  71.111  0.00  0.00    +0.000 HD
TER 
REMARK  Name = /data/user_data/xianyang/t3-aimnet-affinity-balanced/L3/P28347/pocket.pdb
REMARK                            x       y       z     vdW  Elec       q    Type
REMARK                         _______ _______ _______ _____ _____    ______ ____
ATOM      1  N   ILE E   1      -3.072   7.722  70.740  0.00  0.00    +0.000 N 
ATOM      2  CA  ILE E   1      -1.942   8.462  70.183  0.00  0.00    +0.000 C 
ATOM      3  C   ILE E   1      -1.566   9.493  71.249  0.00  0.00    +0.000 C 
ATOM      4  O   ILE E   1      -2.448  10.161  71.787  0.00  0.00    +0.000 OA
ATOM      5  CB  ILE E   1      -2.283   9.181  68.847  0.00  0.00    +0.000 C 
ATOM      6  CG1 ILE E   1      -2.539   8.208  67.684  0.00  0.00    +0.000 C 
ATOM      7  CG2 ILE E   1      -1.208  10.197  68.479  0.00  0.00    +0.000 C 
ATOM      8  CD1 ILE E   1      -3.132   8.871  66.467  0.00  0.00    +0.000 C 
ATOM      9  H   ILE E   1      -3.375   7.012  70.074  0.00  0.00    +0.000 HD
ATOM     10  H   ILE E   1      -3.842   8.365  70.925  0.00  0.00    +0.000 HD
ATOM     11  H   ILE E   1      -2.788   7.272  71.610  0.00  0.00    +0.000 HD
TER 
REMARK  Name = /data/user_data/xianyang/t3-aimnet-affinity-balanced/L3/P28347/pocket.pdb
REMARK                            x       y       z     vdW  Elec       q    Type
REMARK                         _______ _______ _______ _____ _____    ______ ____
ATOM      1  N   PHE F   1      -3.751   1.901  62.298  0.00  0.00    +0.000 N 
ATOM      2  CA  PHE F   1      -3.992   1.484  63.669  0.00  0.00    +0.000 C 
ATOM      3  C   PHE F   1      -4.142  -0.009  63.775  0.00  0.00    +0.000 C 
ATOM      4  O   PHE F   1      -4.759  -0.632  62.919  0.00  0.00    +0.000 OA
ATOM      5  CB  PHE F   1      -5.307   2.071  64.197  0.00  0.00    +0.000 C 
ATOM      6  CG  PHE F   1      -5.296   3.523  64.576  0.00  0.00    +0.000 A 
ATOM      7  CD2 PHE F   1      -4.655   3.950  65.727  0.00  0.00    +0.000 A 
ATOM      8  CD1 PHE F   1      -5.968   4.459  63.811  0.00  0.00    +0.000 A 
ATOM      9  CE2 PHE F   1      -4.670   5.288  66.092  0.00  0.00    +0.000 A 
ATOM     10  CE1 PHE F   1      -5.983   5.794  64.182  0.00  0.00    +0.000 A 
ATOM     11  CZ  PHE F   1      -5.331   6.200  65.317  0.00  0.00    +0.000 A 
ATOM     12  H   PHE F   1      -2.873   1.499  61.970  0.00  0.00    +0.000 HD
ATOM     13  H   PHE F   1      -3.695   2.919  62.257  0.00  0.00    +0.000 HD
ATOM     14  H   PHE F   1      -4.515   1.578  61.705  0.00  0.00    +0.000 HD
TER 
REMARK  Name = /data/user_data/xianyang/t3-aimnet-affinity-balanced/L3/P28347/pocket.pdb
REMARK                            x       y       z     vdW  Elec       q    Type
REMARK                         _______ _______ _______ _____ _____    ______ ____
ATOM      1  N   ALA G   1      -5.993  -1.907  66.456  0.00  0.00    +0.000 N 
ATOM      2  CA  ALA G   1      -6.943  -1.736  67.543  0.00  0.00    +0.000 C 
ATOM      3  C   ALA G   1      -7.002  -2.912  68.492  0.00  0.00    +0.000 C 
ATOM      4  O   ALA G   1      -7.127  -4.056  68.049  0.00  0.00    +0.000 OA
ATOM      5  CB  ALA G   1      -8.326  -1.479  66.976  0.00  0.00    +0.000 C 
ATOM      6  H   ALA G   1      -6.007  -1.080  65.859  0.00  0.00    +0.000 HD
ATOM      7  H   ALA G   1      -6.249  -2.727  65.906  0.00  0.00    +0.000 HD
ATOM      8  H   ALA G   1      -5.056  -2.034  66.840  0.00  0.00    +0.000 HD
TER 
REMARK  Name = /data/user_data/xianyang/t3-aimnet-affinity-balanced/L3/P28347/pocket.pdb
REMARK                            x       y       z     vdW  Elec       q    Type
REMARK                         _______ _______ _______ _____ _____    ______ ____
ATOM      1  N   LEU H   1      -8.915  -5.125  70.773  0.00  0.00    +0.000 N 
ATOM      2  CA  LEU H   1     -10.294  -5.563  70.986  0.00  0.00    +0.000 C 
ATOM      3  C   LEU H   1     -10.430  -6.568  72.152  0.00  0.00    +0.000 C 
ATOM      4  O   LEU H   1     -11.488  -7.163  72.316  0.00  0.00    +0.000 OA
ATOM      5  CB  LEU H   1     -10.890  -6.134  69.684  0.00  0.00    +0.000 C 
ATOM      6  CG  LEU H   1     -11.705  -5.183  68.778  0.00  0.00    +0.000 C 
ATOM      7  CD2 LEU H   1     -10.844  -4.095  68.184  0.00  0.00    +0.000 C 
ATOM      8  CD1 LEU H   1     -12.365  -5.952  67.647  0.00  0.00    +0.000 C 
ATOM      9  H   LEU H   1      -8.884  -4.466  69.995  0.00  0.00    +0.000 HD
ATOM     10  H   LEU H   1      -8.331  -5.933  70.557  0.00  0.00    +0.000 HD
ATOM     11  H   LEU H   1      -8.568  -4.671  71.618  0.00  0.00    +0.000 HD
TER 
REMARK  Name = /data/user_data/xianyang/t3-aimnet-affinity-balanced/L3/P28347/pocket.pdb
REMARK                            x       y       z     vdW  Elec       q    Type
REMARK                         _______ _______ _______ _____ _____    ______ ____
ATOM      1  N   VAL I   1     -14.599   9.038  72.873  0.00  0.00    +0.000 N 
ATOM      2  CA  VAL I   1     -13.411   9.480  72.180  0.00  0.00    +0.000 C 
ATOM      3  C   VAL I   1     -12.899  10.750  72.880  0.00  0.00    +0.000 C 
ATOM      4  O   VAL I   1     -13.661  11.685  73.111  0.00  0.00    +0.000 OA
ATOM      5  CB  VAL I   1     -13.696   9.745  70.684  0.00  0.00    +0.000 C 
ATOM      6  CG2 VAL I   1     -12.453  10.281  69.985  0.00  0.00    +0.000 C 
ATOM      7  CG1 VAL I   1     -14.203   8.487  69.984  0.00  0.00    +0.000 C 
ATOM      8  N   THR I   2     -11.623  10.771  73.254  0.00  0.00    +0.000 N 
ATOM      9  CA  THR I   2     -11.014  11.945  73.851  0.00  0.00    +0.000 C 
ATOM     10  C   THR I   2      -9.882  12.386  72.939  0.00  0.00    +0.000 C 
ATOM     11  O   THR I   2      -9.084  11.561  72.486  0.00  0.00    +0.000 OA
ATOM     12  CB  THR I   2     -10.592  11.700  75.324  0.00  0.00    +0.000 C 
ATOM     13  OG1 THR I   2     -11.754  11.689  76.161  0.00  0.00    +0.000 OA
ATOM     14  CG2 THR I   2      -9.645  12.784  75.861  0.00  0.00    +0.000 C 
ATOM     15  N   SER I   3      -9.862  13.668  72.589  0.00  0.00    +0.000 N 
ATOM     16  CA  SER I   3      -8.797  14.221  71.759  0.00  0.00    +0.000 C 
ATOM     17  CB  SER I   3      -8.337  15.573  72.298  0.00  0.00    +0.000 C 
ATOM     18  OG  SER I   3      -9.058  16.218  73.054  0.00  0.00    +0.000 OA
ATOM     19  C   SER I   3      -9.229  14.330  70.301  0.00  0.00    +0.000 C 
ATOM     20  O   SER I   3     -10.536  14.864  70.180  0.00  0.00    +0.000 OA
ATOM     21  H   VAL I   1     -14.959   8.194  72.427  0.00  0.00    +0.000 HD
ATOM     22  H   VAL I   1     -15.307   9.771  72.836  0.00  0.00    +0.000 HD
ATOM     23  H   VAL I   1     -14.370   8.836  73.846  0.00  0.00    +0.000 HD
ATOM     24  H   THR I   2     -11.074   9.964  73.122  0.00  0.00    +0.000 HD
ATOM     25  H   THR I   2     -12.190  12.554  76.120  0.00  0.00    +0.000 HD
ATOM     26  H   SER I   3     -10.585  14.260  72.898  0.00  0.00    +0.000 HD
ATOM     27  H   SER I   3     -10.557  15.757  70.558  0.00  0.00    +0.000 HD
TER 
REMARK  Name = /data/user_data/xianyang/t3-aimnet-affinity-balanced/L3/P28347/pocket.pdb
REMARK                            x       y       z     vdW  Elec       q    Type
REMARK                         _______ _______ _______ _____ _____    ______ ____
ATOM      1  N   TYR J   1      -5.917  19.075  70.918  0.00  0.00    +0.000 N 
ATOM      2  CA  TYR J   1      -5.073  19.801  69.981  0.00  0.00    +0.000 C 
ATOM      3  C   TYR J   1      -4.428  21.020  70.671  0.00  0.00    +0.000 C 
ATOM      4  O   TYR J   1      -4.856  21.424  71.754  0.00  0.00    +0.000 OA
ATOM      5  CB  TYR J   1      -5.883  20.241  68.754  0.00  0.00    +0.000 C 
ATOM      6  CG  TYR J   1      -6.534  19.081  68.042  0.00  0.00    +0.000 A 
ATOM      7  CD1 TYR J   1      -5.884  18.417  67.008  0.00  0.00    +0.000 A 
ATOM      8  CD2 TYR J   1      -7.777  18.607  68.440  0.00  0.00    +0.000 A 
ATOM      9  CE1 TYR J   1      -6.474  17.339  66.362  0.00  0.00    +0.000 A 
ATOM     10  CE2 TYR J   1      -8.364  17.515  67.815  0.00  0.00    +0.000 A 
ATOM     11  CZ  TYR J   1      -7.706  16.881  66.781  0.00  0.00    +0.000 A 
ATOM     12  OH  TYR J   1      -8.296  15.810  66.178  0.00  0.00    +0.000 OA
ATOM     13  H   TYR J   1      -6.336  18.273  70.447  0.00  0.00    +0.000 HD
ATOM     14  H   TYR J   1      -6.654  19.692  71.260  0.00  0.00    +0.000 HD
ATOM     15  H   TYR J   1      -5.353  18.752  71.704  0.00  0.00    +0.000 HD
ATOM     16  H   TYR J   1      -7.861  15.370  65.475  0.00  0.00    +0.000 HD
TER 
REMARK  Name = /data/user_data/xianyang/t3-aimnet-affinity-balanced/L3/P28347/pocket.pdb
REMARK                            x       y       z     vdW  Elec       q    Type
REMARK                         _______ _______ _______ _____ _____    ______ ____
ATOM      1  N   THR K   1     -15.359  14.165  61.847  0.00  0.00    +0.000 N 
ATOM      2  CA  THR K   1     -14.953  12.770  61.889  0.00  0.00    +0.000 C 
ATOM      3  C   THR K   1     -15.908  12.043  60.999  0.00  0.00    +0.000 C 
ATOM      4  O   THR K   1     -17.087  12.002  61.324  0.00  0.00    +0.000 OA
ATOM      5  CB  THR K   1     -15.105  12.200  63.295  0.00  0.00    +0.000 C 
ATOM      6  OG1 THR K   1     -14.270  12.921  64.192  0.00  0.00    +0.000 OA
ATOM      7  CG2 THR K   1     -14.781  10.723  63.354  0.00  0.00    +0.000 C 
ATOM      8  H   THR K   1     -15.248  14.523  60.898  0.00  0.00    +0.000 HD
ATOM      9  H   THR K   1     -14.777  14.708  62.485  0.00  0.00    +0.000 HD
ATOM     10  H   THR K   1     -16.336  14.243  62.128  0.00  0.00    +0.000 HD
ATOM     11  H   THR K   1     -13.343  12.818  63.925  0.00  0.00    +0.000 HD
TER 
REMARK  Name = /data/user_data/xianyang/t3-aimnet-affinity-balanced/L3/P28347/pocket.pdb
REMARK                            x       y       z     vdW  Elec       q    Type
REMARK                         _______ _______ _______ _____ _____    ______ ____
ATOM      1  N   VAL L   1     -17.104   8.533  59.388  0.00  0.00    +0.000 N 
ATOM      2  CA  VAL L   1     -16.997   7.082  59.420  0.00  0.00    +0.000 C 
ATOM      3  C   VAL L   1     -17.324   6.630  58.015  0.00  0.00    +0.000 C 
ATOM      4  O   VAL L   1     -18.403   6.946  57.514  0.00  0.00    +0.000 OA
ATOM      5  CB  VAL L   1     -17.981   6.488  60.439  0.00  0.00    +0.000 C 
ATOM      6  CG1 VAL L   1     -17.954   4.968  60.393  0.00  0.00    +0.000 C 
ATOM      7  CG2 VAL L   1     -17.683   7.013  61.830  0.00  0.00    +0.000 C 
ATOM      8  H   VAL L   1     -16.444   8.908  58.707  0.00  0.00    +0.000 HD
ATOM      9  H   VAL L   1     -16.890   8.910  60.311  0.00  0.00    +0.000 HD
ATOM     10  H   VAL L   1     -18.053   8.798  59.124  0.00  0.00    +0.000 HD
TER 
REMARK  Name = /data/user_data/xianyang/t3-aimnet-affinity-balanced/L3/P28347/pocket.pdb
REMARK                            x       y       z     vdW  Elec       q    Type
REMARK                         _______ _______ _______ _____ _____    ______ ____
ATOM      1  N   LYS M   1     -19.482  13.098  62.560  0.00  0.00    +0.000 N 
ATOM      2  CA  LYS M   1     -19.541  13.808  63.830  0.00  0.00    +0.000 C 
ATOM      3  C   LYS M   1     -18.846  15.157  63.577  0.00  0.00    +0.000 C 
ATOM      4  O   LYS M   1     -17.793  15.193  62.934  0.00  0.00    +0.000 OA
ATOM      5  CB  LYS M   1     -18.856  13.005  64.937  0.00  0.00    +0.000 C 
ATOM      6  CG  LYS M   1     -19.294  13.428  66.323  0.00  0.00    +0.000 C 
ATOM      7  CD  LYS M   1     -18.276  13.021  67.362  0.00  0.00    +0.000 C 
ATOM      8  CE  LYS M   1     -18.186  11.536  67.583  0.00  0.00    +0.000 C 
ATOM      9  NZ  LYS M   1     -17.094  11.226  68.536  0.00  0.00    +0.000 N 
ATOM     10  H   LYS M   1     -19.944  13.652  61.839  0.00  0.00    +0.000 HD
ATOM     11  H   LYS M   1     -19.953  12.198  62.651  0.00  0.00    +0.000 HD
ATOM     12  H   LYS M   1     -18.507  12.947  62.300  0.00  0.00    +0.000 HD
ATOM     13  H   LYS M   1     -16.207  11.557  68.156  0.00  0.00    +0.000 HD
ATOM     14  H   LYS M   1     -17.046  10.218  68.682  0.00  0.00    +0.000 HD
ATOM     15  H   LYS M   1     -17.277  11.690  69.426  0.00  0.00    +0.000 HD
TER 
REMARK  Name = /data/user_data/xianyang/t3-aimnet-affinity-balanced/L3/P28347/pocket.pdb
REMARK                            x       y       z     vdW  Elec       q    Type
REMARK                         _______ _______ _______ _____ _____    ______ ____
ATOM      1  N   MET N   1     -19.330   7.990  71.348  0.00  0.00    +0.000 N 
ATOM      2  CA  MET N   1     -19.173   7.303  70.079  0.00  0.00    +0.000 C 
ATOM      3  C   MET N   1     -20.581   7.178  69.489  0.00  0.00    +0.000 C 
ATOM      4  O   MET N   1     -21.562   7.029  70.235  0.00  0.00    +0.000 OA
ATOM      5  CB  MET N   1     -18.602   5.893  70.283  0.00  0.00    +0.000 C 
ATOM      6  CG  MET N   1     -17.107   5.811  70.188  0.00  0.00    +0.000 C 
ATOM      7  SD  MET N   1     -16.573   4.085  70.078  0.00  0.00    +0.000 S 
ATOM      8  CE  MET N   1     -14.952   4.206  70.867  0.00  0.00    +0.000 C 
ATOM      9  H   MET N   1     -19.710   8.922  71.185  0.00  0.00    +0.000 HD
ATOM     10  H   MET N   1     -18.422   8.068  71.807  0.00  0.00    +0.000 HD
ATOM     11  H   MET N   1     -19.968   7.462  71.944  0.00  0.00    +0.000 HD
TER 
REMARK  Name = /data/user_data/xianyang/t3-aimnet-affinity-balanced/L3/P28347/pocket.pdb
REMARK                            x       y       z     vdW  Elec       q    Type
REMARK                         _______ _______ _______ _____ _____    ______ ____
ATOM      1  N   MET O   1     -20.597   3.205  65.343  0.00  0.00    +0.000 N 
ATOM      2  CA  MET O   1     -19.324   2.742  65.882  0.00  0.00    +0.000 C 
ATOM      3  C   MET O   1     -19.482   1.745  67.014  0.00  0.00    +0.000 C 
ATOM      4  O   MET O   1     -18.738   0.766  67.043  0.00  0.00    +0.000 OA
ATOM      5  CB  MET O   1     -18.406   3.904  66.306  0.00  0.00    +0.000 C 
ATOM      6  CG  MET O   1     -17.605   4.513  65.167  0.00  0.00    +0.000 C 
ATOM      7  SD  MET O   1     -16.788   3.353  64.027  0.00  0.00    +0.000 S 
ATOM      8  CE  MET O   1     -15.821   2.382  65.155  0.00  0.00    +0.000 C 
ATOM      9  H   MET O   1     -20.425   3.870  64.589  0.00  0.00    +0.000 HD
ATOM     10  H   MET O   1     -21.134   3.660  66.082  0.00  0.00    +0.000 HD
ATOM     11  H   MET O   1     -21.123   2.409  64.982  0.00  0.00    +0.000 HD
TER 
REMARK  Name = /data/user_data/xianyang/t3-aimnet-affinity-balanced/L3/P28347/pocket.pdb
REMARK                            x       y       z     vdW  Elec       q    Type
REMARK                         _______ _______ _______ _____ _____    ______ ____
ATOM      1  N   PHE P   1     -20.625  -1.507  65.538  0.00  0.00    +0.000 N 
ATOM      2  CA  PHE P   1     -19.523  -2.025  64.726  0.00  0.00    +0.000 C 
ATOM      3  C   PHE P   1     -18.519  -2.794  65.594  0.00  0.00    +0.000 C 
ATOM      4  O   PHE P   1     -18.117  -3.891  65.220  0.00  0.00    +0.000 OA
ATOM      5  CB  PHE P   1     -18.808  -0.885  63.979  0.00  0.00    +0.000 C 
ATOM      6  CG  PHE P   1     -17.647  -1.328  63.117  0.00  0.00    +0.000 A 
ATOM      7  CD1 PHE P   1     -17.824  -2.270  62.115  0.00  0.00    +0.000 A 
ATOM      8  CD2 PHE P   1     -16.390  -0.775  63.281  0.00  0.00    +0.000 A 
ATOM      9  CE1 PHE P   1     -16.759  -2.681  61.322  0.00  0.00    +0.000 A 
ATOM     10  CE2 PHE P   1     -15.328  -1.175  62.470  0.00  0.00    +0.000 A 
ATOM     11  CZ  PHE P   1     -15.522  -2.126  61.496  0.00  0.00    +0.000 A 
ATOM     12  N   ILE P   2     -18.126  -2.224  66.753  0.00  0.00    +0.000 N 
ATOM     13  CA  ILE P   2     -17.190  -2.857  67.685  0.00  0.00    +0.000 C 
ATOM     14  C   ILE P   2     -17.805  -4.149  68.214  0.00  0.00    +0.000 C 
ATOM     15  O   ILE P   2     -17.144  -5.188  68.197  0.00  0.00    +0.000 OA
ATOM     16  CB  ILE P   2     -16.789  -1.873  68.816  0.00  0.00    +0.000 C 
ATOM     17  CG1 ILE P   2     -15.935  -0.730  68.262  0.00  0.00    +0.000 C 
ATOM     18  CG2 ILE P   2     -16.063  -2.585  69.938  0.00  0.00    +0.000 C 
ATOM     19  CD1 ILE P   2     -15.883   0.444  69.106  0.00  0.00    +0.000 C 
ATOM     20  H   PHE P   1     -21.279  -1.000  64.941  0.00  0.00    +0.000 HD
ATOM     21  H   PHE P   1     -20.256  -0.876  66.250  0.00  0.00    +0.000 HD
ATOM     22  H   PHE P   1     -21.109  -2.283  65.990  0.00  0.00    +0.000 HD
ATOM     23  H   ILE P   2     -18.487  -1.338  66.984  0.00  0.00    +0.000 HD
TER 
REMARK  Name = /data/user_data/xianyang/t3-aimnet-affinity-balanced/L3/P28347/pocket.pdb
REMARK                            x       y       z     vdW  Elec       q    Type
REMARK                         _______ _______ _______ _____ _____    ______ ____
ATOM      1  N   LEU Q   1     -17.725  -6.727  65.488  0.00  0.00    +0.000 N 
ATOM      2  CA  LEU Q   1     -16.358  -7.135  65.190  0.00  0.00    +0.000 C 
ATOM      3  C   LEU Q   1     -15.922  -8.146  66.221  0.00  0.00    +0.000 C 
ATOM      4  O   LEU Q   1     -15.427  -9.205  65.850  0.00  0.00    +0.000 OA
ATOM      5  CB  LEU Q   1     -15.393  -5.941  65.215  0.00  0.00    +0.000 C 
ATOM      6  CG  LEU Q   1     -15.081  -5.250  63.903  0.00  0.00    +0.000 C 
ATOM      7  CD2 LEU Q   1     -14.002  -4.221  64.119  0.00  0.00    +0.000 C 
ATOM      8  CD1 LEU Q   1     -14.633  -6.243  62.829  0.00  0.00    +0.000 C 
ATOM      9  H   LEU Q   1     -18.034  -6.042  64.798  0.00  0.00    +0.000 HD
ATOM     10  H   LEU Q   1     -17.760  -6.311  66.419  0.00  0.00    +0.000 HD
ATOM     11  H   LEU Q   1     -18.338  -7.542  65.456  0.00  0.00    +0.000 HD
TER 
REMARK  Name = /data/user_data/xianyang/t3-aimnet-affinity-balanced/L3/P28347/pocket.pdb
REMARK                            x       y       z     vdW  Elec       q    Type
REMARK                         _______ _______ _______ _____ _____    ______ ____
ATOM      1  N   LEU R   1     -12.480  -4.914  58.426  0.00  0.00    +0.000 N 
ATOM      2  CA  LEU R   1     -11.806  -3.619  58.601  0.00  0.00    +0.000 C 
ATOM      3  C   LEU R   1     -11.111  -3.081  57.339  0.00  0.00    +0.000 C 
ATOM      4  O   LEU R   1     -10.743  -1.903  57.294  0.00  0.00    +0.000 OA
ATOM      5  CB  LEU R   1     -10.796  -3.708  59.742  0.00  0.00    +0.000 C 
ATOM      6  CG  LEU R   1     -11.375  -3.624  61.133  0.00  0.00    +0.000 C 
ATOM      7  CD2 LEU R   1     -10.320  -3.952  62.170  0.00  0.00    +0.000 C 
ATOM      8  CD1 LEU R   1     -11.976  -2.266  61.376  0.00  0.00    +0.000 C 
ATOM      9  H   LEU R   1     -13.153  -4.847  57.662  0.00  0.00    +0.000 HD
ATOM     10  H   LEU R   1     -12.967  -5.163  59.287  0.00  0.00    +0.000 HD
ATOM     11  H   LEU R   1     -11.788  -5.631  58.207  0.00  0.00    +0.000 HD
TER 
REMARK  Name = /data/user_data/xianyang/t3-aimnet-affinity-balanced/L3/P28347/pocket.pdb
REMARK                            x       y       z     vdW  Elec       q    Type
REMARK                         _______ _______ _______ _____ _____    ______ ____
ATOM      1  N   PHE S   1     -13.252  -0.419  55.977  0.00  0.00    +0.000 N 
ATOM      2  CA  PHE S   1     -13.608   0.510  57.021  0.00  0.00    +0.000 C 
ATOM      3  C   PHE S   1     -12.487   1.514  57.214  0.00  0.00    +0.000 C 
ATOM      4  O   PHE S   1     -11.359   1.145  57.564  0.00  0.00    +0.000 OA
ATOM      5  CB  PHE S   1     -13.891  -0.243  58.332  0.00  0.00    +0.000 C 
ATOM      6  CG  PHE S   1     -14.189   0.705  59.464  0.00  0.00    +0.000 A 
ATOM      7  CD1 PHE S   1     -15.436   1.283  59.589  0.00  0.00    +0.000 A 
ATOM      8  CD2 PHE S   1     -13.197   1.073  60.362  0.00  0.00    +0.000 A 
ATOM      9  CE1 PHE S   1     -15.694   2.176  60.608  0.00  0.00    +0.000 A 
ATOM     10  CE2 PHE S   1     -13.455   1.990  61.355  0.00  0.00    +0.000 A 
ATOM     11  CZ  PHE S   1     -14.704   2.523  61.484  0.00  0.00    +0.000 A 
ATOM     12  H   PHE S   1     -13.067   0.093  55.115  0.00  0.00    +0.000 HD
ATOM     13  H   PHE S   1     -14.021  -1.072  55.826  0.00  0.00    +0.000 HD
ATOM     14  H   PHE S   1     -12.416  -0.935  56.252  0.00  0.00    +0.000 HD
TER 
REMARK  Name = /data/user_data/xianyang/t3-aimnet-affinity-balanced/L3/P28347/pocket.pdb
REMARK                            x       y       z     vdW  Elec       q    Type
REMARK                         _______ _______ _______ _____ _____    ______ ____
ATOM      1  N   ILE T   1     -11.681   5.911  58.565  0.00  0.00    +0.000 N 
ATOM      2  CA  ILE T   1     -12.194   7.084  59.267  0.00  0.00    +0.000 C 
ATOM      3  C   ILE T   1     -11.409   8.293  58.752  0.00  0.00    +0.000 C 
ATOM      4  O   ILE T   1     -10.189   8.211  58.659  0.00  0.00    +0.000 OA
ATOM      5  CB  ILE T   1     -12.106   6.942  60.811  0.00  0.00    +0.000 C 
ATOM      6  CG1 ILE T   1     -12.936   5.737  61.312  0.00  0.00    +0.000 C 
ATOM      7  CG2 ILE T   1     -12.534   8.241  61.497  0.00  0.00    +0.000 C 
ATOM      8  CD1 ILE T   1     -12.933   5.503  62.825  0.00  0.00    +0.000 C 
ATOM      9  H   ILE T   1     -11.761   6.055  57.558  0.00  0.00    +0.000 HD
ATOM     10  H   ILE T   1     -12.222   5.090  58.835  0.00  0.00    +0.000 HD
ATOM     11  H   ILE T   1     -10.701   5.769  58.811  0.00  0.00    +0.000 HD
TER 
REMARK  Name = /data/user_data/xianyang/t3-aimnet-affinity-balanced/L3/P28347/pocket.pdb
REMARK                            x       y       z     vdW  Elec       q    Type
REMARK                         _______ _______ _______ _____ _____    ______ ____
ATOM      1  N   LEU U   1     -10.543  12.187  59.504  0.00  0.00    +0.000 N 
ATOM      2  CA  LEU U   1     -10.633  13.251  60.470  0.00  0.00    +0.000 C 
ATOM      3  C   LEU U   1     -10.094  14.555  59.903  0.00  0.00    +0.000 C 
ATOM      4  O   LEU U   1      -8.922  14.627  59.587  0.00  0.00    +0.000 OA
ATOM      5  CB  LEU U   1      -9.836  12.848  61.689  0.00  0.00    +0.000 C 
ATOM      6  CG  LEU U   1      -9.931  13.839  62.813  0.00  0.00    +0.000 C 
ATOM      7  CD2 LEU U   1     -10.804  13.302  63.911  0.00  0.00    +0.000 C 
ATOM      8  CD1 LEU U   1      -8.563  14.263  63.278  0.00  0.00    +0.000 C 
ATOM      9  H   LEU U   1     -11.075  12.438  58.671  0.00  0.00    +0.000 HD
ATOM     10  H   LEU U   1     -10.924  11.330  59.905  0.00  0.00    +0.000 HD
ATOM     11  H   LEU U   1      -9.566  12.039  59.252  0.00  0.00    +0.000 HD
TER 
REMARK  Name = /data/user_data/xianyang/t3-aimnet-affinity-balanced/L3/P28347/pocket.pdb
REMARK                            x       y       z     vdW  Elec       q    Type
REMARK                         _______ _______ _______ _____ _____    ______ ____
ATOM      1  N   MET V   1      -6.329  13.650  59.076  0.00  0.00    +0.000 N 
ATOM      2  CA  MET V   1      -5.831  12.314  59.331  0.00  0.00    +0.000 C 
ATOM      3  C   MET V   1      -6.736  11.245  58.737  0.00  0.00    +0.000 C 
ATOM      4  O   MET V   1      -7.894  11.126  59.114  0.00  0.00    +0.000 OA
ATOM      5  CB  MET V   1      -5.660  12.096  60.813  0.00  0.00    +0.000 C 
ATOM      6  CG  MET V   1      -4.795  13.139  61.428  0.00  0.00    +0.000 C 
ATOM      7  SD  MET V   1      -5.046  13.195  63.181  0.00  0.00    +0.000 S 
ATOM      8  CE  MET V   1      -4.519  11.536  63.582  0.00  0.00    +0.000 C 
ATOM      9  H   MET V   1      -6.440  13.785  58.071  0.00  0.00    +0.000 HD
ATOM     10  H   MET V   1      -5.667  14.335  59.440  0.00  0.00    +0.000 HD
ATOM     11  H   MET V   1      -7.231  13.771  59.537  0.00  0.00    +0.000 HD
TER 
REMARK  Name = /data/user_data/xianyang/t3-aimnet-affinity-balanced/L3/P28347/pocket.pdb
REMARK                            x       y       z     vdW  Elec       q    Type
REMARK                         _______ _______ _______ _____ _____    ______ ____
ATOM      1  N   CYS W   1      -7.544   7.490  58.532  0.00  0.00    +0.000 N 
ATOM      2  CA  CYS W   1      -7.303   6.383  59.435  0.00  0.00    +0.000 C 
ATOM      3  C   CYS W   1      -7.677   5.056  58.847  0.00  0.00    +0.000 C 
ATOM      4  O   CYS W   1      -8.788   4.879  58.362  0.00  0.00    +0.000 OA
ATOM      5  CB  CYS W   1      -8.014   6.634  60.763  0.00  0.00    +0.000 C 
ATOM      6  SG  CYS W   1      -7.675   8.261  61.495  0.00  0.00    +0.000 S 
ATOM      7  H   CYS W   1      -7.067   7.317  57.647  0.00  0.00    +0.000 HD
ATOM      8  H   CYS W   1      -7.188   8.351  58.947  0.00  0.00    +0.000 HD
ATOM      9  H   CYS W   1      -8.546   7.581  58.366  0.00  0.00    +0.000 HD
ATOM     10  H   CYS W   1      -6.349   8.364  61.777  0.00  0.00    +0.000 HD
TER 
REMARK  Name = /data/user_data/xianyang/t3-aimnet-affinity-balanced/L3/P28347/pocket.pdb
REMARK                            x       y       z     vdW  Elec       q    Type
REMARK                         _______ _______ _______ _____ _____    ______ ____
ATOM      1  N   PHE X   1      -7.511   0.696  59.689  0.00  0.00    +0.000 N 
ATOM      2  CA  PHE X   1      -7.454  -0.203  60.857  0.00  0.00    +0.000 C 
ATOM      3  C   PHE X   1      -7.233  -1.684  60.578  0.00  0.00    +0.000 C 
ATOM      4  O   PHE X   1      -7.763  -2.234  59.622  0.00  0.00    +0.000 OA
ATOM      5  CB  PHE X   1      -8.763  -0.104  61.655  0.00  0.00    +0.000 C 
ATOM      6  CG  PHE X   1      -9.119   1.288  62.112  0.00  0.00    +0.000 A 
ATOM      7  CD1 PHE X   1      -9.783   2.166  61.268  0.00  0.00    +0.000 A 
ATOM      8  CD2 PHE X   1      -8.815   1.711  63.395  0.00  0.00    +0.000 A 
ATOM      9  CE1 PHE X   1     -10.084   3.453  61.684  0.00  0.00    +0.000 A 
ATOM     10  CE2 PHE X   1      -9.131   2.993  63.810  0.00  0.00    +0.000 A 
ATOM     11  CZ  PHE X   1      -9.753   3.858  62.952  0.00  0.00    +0.000 A 
ATOM     12  H   PHE X   1      -6.640   0.626  59.163  0.00  0.00    +0.000 HD
ATOM     13  H   PHE X   1      -7.641   1.657  60.006  0.00  0.00    +0.000 HD
ATOM     14  H   PHE X   1      -8.292   0.427  59.090  0.00  0.00    +0.000 HD
TER 
