REMARK  Name = /data/user_data/xianyang/t3-aimnet-affinity-balanced/L4/O00767/pocket.pdb
REMARK                            x       y       z     vdW  Elec       q    Type
REMARK                         _______ _______ _______ _____ _____    ______ ____
ATOM      1  N   VAL A   1      25.596  77.690  56.612  0.00  0.00    +0.000 N 
ATOM      2  CA  VAL A   1      25.491  76.372  57.219  0.00  0.00    +0.000 C 
ATOM      3  C   VAL A   1      26.855  75.696  57.143  0.00  0.00    +0.000 C 
ATOM      4  O   VAL A   1      27.250  75.176  56.099  0.00  0.00    +0.000 OA
ATOM      5  CB  VAL A   1      24.425  75.505  56.529  0.00  0.00    +0.000 C 
ATOM      6  CG2 VAL A   1      24.213  74.218  57.303  0.00  0.00    +0.000 C 
ATOM      7  CG1 VAL A   1      23.120  76.276  56.414  0.00  0.00    +0.000 C 
ATOM      8  H   VAL A   1      24.690  78.157  56.655  0.00  0.00    +0.000 HD
ATOM      9  H   VAL A   1      25.884  77.594  55.638  0.00  0.00    +0.000 HD
ATOM     10  H   VAL A   1      26.288  78.243  57.118  0.00  0.00    +0.000 HD
TER 
REMARK  Name = /data/user_data/xianyang/t3-aimnet-affinity-balanced/L4/O00767/pocket.pdb
REMARK                            x       y       z     vdW  Elec       q    Type
REMARK                         _______ _______ _______ _____ _____    ______ ____
ATOM      1  N   ARG B   1      28.103  73.046  58.614  0.00  0.00    +0.000 N 
ATOM      2  CA  ARG B   1      28.130  71.590  58.488  0.00  0.00    +0.000 C 
ATOM      3  C   ARG B   1      28.245  71.223  57.020  0.00  0.00    +0.000 C 
ATOM      4  O   ARG B   1      28.982  70.313  56.646  0.00  0.00    +0.000 OA
ATOM      5  CB  ARG B   1      26.876  70.956  59.093  0.00  0.00    +0.000 C 
ATOM      6  CG  ARG B   1      26.865  69.434  59.058  0.00  0.00    +0.000 C 
ATOM      7  CD  ARG B   1      25.563  68.859  59.620  0.00  0.00    +0.000 C 
ATOM      8  NE  ARG B   1      24.538  68.691  58.592  0.00  0.00    +0.000 N 
ATOM      9  CZ  ARG B   1      23.550  69.552  58.363  0.00  0.00    +0.000 C 
ATOM     10  NH2 ARG B   1      23.443  70.651  59.096  0.00  0.00    +0.000 N 
ATOM     11  NH1 ARG B   1      22.664  69.312  57.402  0.00  0.00    +0.000 N 
ATOM     12  N   ASN B   2      27.512  71.960  56.192  0.00  0.00    +0.000 N 
ATOM     13  CA  ASN B   2      27.486  71.722  54.758  0.00  0.00    +0.000 C 
ATOM     14  C   ASN B   2      28.752  72.220  54.067  0.00  0.00    +0.000 C 
ATOM     15  O   ASN B   2      29.270  71.562  53.166  0.00  0.00    +0.000 OA
ATOM     16  CB  ASN B   2      26.250  72.383  54.145  0.00  0.00    +0.000 C 
ATOM     17  CG  ASN B   2      24.955  71.904  54.783  0.00  0.00    +0.000 C 
ATOM     18  OD1 ASN B   2      24.971  71.169  55.771  0.00  0.00    +0.000 OA
ATOM     19  ND2 ASN B   2      23.826  72.325  54.225  0.00  0.00    +0.000 N 
ATOM     20  H   ARG B   1      28.950  73.439  58.203  0.00  0.00    +0.000 HD
ATOM     21  H   ARG B   1      28.054  73.301  59.600  0.00  0.00    +0.000 HD
ATOM     22  H   ARG B   1      27.286  73.414  58.127  0.00  0.00    +0.000 HD
ATOM     23  H   ARG B   1      24.582  67.884  58.030  0.00  0.00    +0.000 HD
ATOM     24  H   ARG B   1      22.711  71.287  58.925  0.00  0.00    +0.000 HD
ATOM     25  H   ARG B   1      24.095  70.831  59.811  0.00  0.00    +0.000 HD
ATOM     26  H   ARG B   1      22.740  68.497  56.855  0.00  0.00    +0.000 HD
ATOM     27  H   ARG B   1      21.932  69.949  57.237  0.00  0.00    +0.000 HD
ATOM     28  H   ASN B   2      26.968  72.692  56.562  0.00  0.00    +0.000 HD
ATOM     29  H   ASN B   2      23.856  72.912  53.435  0.00  0.00    +0.000 HD
ATOM     30  H   ASN B   2      22.959  72.050  54.601  0.00  0.00    +0.000 HD
TER 
REMARK  Name = /data/user_data/xianyang/t3-aimnet-affinity-balanced/L4/O00767/pocket.pdb
REMARK                            x       y       z     vdW  Elec       q    Type
REMARK                         _______ _______ _______ _____ _____    ______ ____
ATOM      1  N   MET C   1      30.892  69.600  52.056  0.00  0.00    +0.000 N 
ATOM      2  CA  MET C   1      31.027  69.828  50.620  0.00  0.00    +0.000 C 
ATOM      3  C   MET C   1      32.487  70.044  50.233  0.00  0.00    +0.000 C 
ATOM      4  O   MET C   1      32.954  69.500  49.232  0.00  0.00    +0.000 OA
ATOM      5  CB  MET C   1      30.178  71.019  50.170  0.00  0.00    +0.000 C 
ATOM      6  CG  MET C   1      28.753  70.638  49.797  0.00  0.00    +0.000 C 
ATOM      7  SD  MET C   1      28.705  69.177  48.734  0.00  0.00    +0.000 S 
ATOM      8  CE  MET C   1      26.945  69.003  48.436  0.00  0.00    +0.000 C 
ATOM      9  H   MET C   1      29.909  69.459  52.287  0.00  0.00    +0.000 HD
ATOM     10  H   MET C   1      31.248  70.410  52.564  0.00  0.00    +0.000 HD
ATOM     11  H   MET C   1      31.426  68.772  52.320  0.00  0.00    +0.000 HD
TER 
REMARK  Name = /data/user_data/xianyang/t3-aimnet-affinity-balanced/L4/O00767/pocket.pdb
REMARK                            x       y       z     vdW  Elec       q    Type
REMARK                         _______ _______ _______ _____ _____    ______ ____
ATOM      1  N   TYR D   1      27.394  56.191  37.530  0.00  0.00    +0.000 N 
ATOM      2  CA  TYR D   1      27.081  57.573  37.185  0.00  0.00    +0.000 C 
ATOM      3  C   TYR D   1      25.778  57.673  36.400  0.00  0.00    +0.000 C 
ATOM      4  O   TYR D   1      24.941  58.532  36.678  0.00  0.00    +0.000 OA
ATOM      5  CB  TYR D   1      28.226  58.191  36.379  0.00  0.00    +0.000 C 
ATOM      6  CG  TYR D   1      27.812  59.357  35.511  0.00  0.00    +0.000 A 
ATOM      7  CD1 TYR D   1      27.519  59.178  34.163  0.00  0.00    +0.000 A 
ATOM      8  CD2 TYR D   1      27.720  60.638  36.036  0.00  0.00    +0.000 A 
ATOM      9  CE1 TYR D   1      27.139  60.242  33.368  0.00  0.00    +0.000 A 
ATOM     10  CE2 TYR D   1      27.343  61.709  35.247  0.00  0.00    +0.000 A 
ATOM     11  CZ  TYR D   1      27.053  61.505  33.915  0.00  0.00    +0.000 A 
ATOM     12  OH  TYR D   1      26.676  62.567  33.129  0.00  0.00    +0.000 OA
ATOM     13  H   TYR D   1      28.269  56.161  38.053  0.00  0.00    +0.000 HD
ATOM     14  H   TYR D   1      27.489  55.641  36.676  0.00  0.00    +0.000 HD
ATOM     15  H   TYR D   1      26.643  55.805  38.102  0.00  0.00    +0.000 HD
ATOM     16  H   TYR D   1      26.478  62.432  32.223  0.00  0.00    +0.000 HD
TER 
REMARK  Name = /data/user_data/xianyang/t3-aimnet-affinity-balanced/L4/O00767/pocket.pdb
REMARK                            x       y       z     vdW  Elec       q    Type
REMARK                         _______ _______ _______ _____ _____    ______ ____
ATOM      1  N   SER E   1      22.556  56.672  38.406  0.00  0.00    +0.000 N 
ATOM      2  CA  SER E   1      22.310  57.767  39.331  0.00  0.00    +0.000 C 
ATOM      3  C   SER E   1      21.637  58.925  38.610  0.00  0.00    +0.000 C 
ATOM      4  O   SER E   1      20.723  59.553  39.143  0.00  0.00    +0.000 OA
ATOM      5  CB  SER E   1      23.616  58.235  39.975  0.00  0.00    +0.000 C 
ATOM      6  OG  SER E   1      24.251  57.181  40.673  0.00  0.00    +0.000 OA
ATOM      7  N   ALA E   2      22.098  59.195  37.392  0.00  0.00    +0.000 N 
ATOM      8  CA  ALA E   2      21.559  60.276  36.578  0.00  0.00    +0.000 C 
ATOM      9  C   ALA E   2      20.095  60.020  36.246  0.00  0.00    +0.000 C 
ATOM     10  O   ALA E   2      19.253  60.899  36.407  0.00  0.00    +0.000 OA
ATOM     11  CB  ALA E   2      22.373  60.437  35.306  0.00  0.00    +0.000 C 
ATOM     12  H   SER E   1      21.674  56.375  37.988  0.00  0.00    +0.000 HD
ATOM     13  H   SER E   1      22.974  55.889  38.909  0.00  0.00    +0.000 HD
ATOM     14  H   SER E   1      23.192  56.983  37.672  0.00  0.00    +0.000 HD
ATOM     15  H   SER E   1      23.668  56.864  41.380  0.00  0.00    +0.000 HD
ATOM     16  H   ALA E   2      22.829  58.645  37.028  0.00  0.00    +0.000 HD
TER 
REMARK  Name = /data/user_data/xianyang/t3-aimnet-affinity-balanced/L4/O00767/pocket.pdb
REMARK                            x       y       z     vdW  Elec       q    Type
REMARK                         _______ _______ _______ _____ _____    ______ ____
ATOM      1  N   ILE F   1      17.608  60.811  38.779  0.00  0.00    +0.000 N 
ATOM      2  CA  ILE F   1      17.286  62.224  38.906  0.00  0.00    +0.000 C 
ATOM      3  C   ILE F   1      16.563  62.722  37.670  0.00  0.00    +0.000 C 
ATOM      4  O   ILE F   1      15.511  63.353  37.759  0.00  0.00    +0.000 OA
ATOM      5  CB  ILE F   1      18.539  63.074  39.112  0.00  0.00    +0.000 C 
ATOM      6  CG1 ILE F   1      19.254  62.658  40.392  0.00  0.00    +0.000 C 
ATOM      7  CG2 ILE F   1      18.178  64.551  39.163  0.00  0.00    +0.000 C 
ATOM      8  CD1 ILE F   1      20.622  63.253  40.504  0.00  0.00    +0.000 C 
ATOM      9  N   THR F   2      17.145  62.426  36.514  0.00  0.00    +0.000 N 
ATOM     10  CA  THR F   2      16.639  62.915  35.241  0.00  0.00    +0.000 C 
ATOM     11  C   THR F   2      15.273  62.331  34.897  0.00  0.00    +0.000 C 
ATOM     12  O   THR F   2      14.267  63.040  34.919  0.00  0.00    +0.000 OA
ATOM     13  CB  THR F   2      17.613  62.597  34.105  0.00  0.00    +0.000 C 
ATOM     14  OG1 THR F   2      18.874  63.219  34.370  0.00  0.00    +0.000 OA
ATOM     15  CG2 THR F   2      17.086  63.139  32.822  0.00  0.00    +0.000 C 
ATOM     16  H   ILE F   1      16.749  60.277  38.643  0.00  0.00    +0.000 HD
ATOM     17  H   ILE F   1      18.076  60.491  39.627  0.00  0.00    +0.000 HD
ATOM     18  H   ILE F   1      18.224  60.673  37.978  0.00  0.00    +0.000 HD
ATOM     19  H   THR F   2      17.947  61.855  36.519  0.00  0.00    +0.000 HD
ATOM     20  H   THR F   2      18.754  64.180  34.431  0.00  0.00    +0.000 HD
TER 
REMARK  Name = /data/user_data/xianyang/t3-aimnet-affinity-balanced/L4/O00767/pocket.pdb
REMARK                            x       y       z     vdW  Elec       q    Type
REMARK                         _______ _______ _______ _____ _____    ______ ____
ATOM      1  N   HIS G   1      12.979  64.188  38.185  0.00  0.00    +0.000 N 
ATOM      2  CA  HIS G   1      12.659  65.392  37.438  0.00  0.00    +0.000 C 
ATOM      3  C   HIS G   1      11.446  65.251  36.525  0.00  0.00    +0.000 C 
ATOM      4  O   HIS G   1      10.481  66.001  36.638  0.00  0.00    +0.000 OA
ATOM      5  CB  HIS G   1      13.860  65.824  36.608  0.00  0.00    +0.000 C 
ATOM      6  CG  HIS G   1      13.658  67.130  35.915  0.00  0.00    +0.000 C 
ATOM      7  ND1 HIS G   1      14.417  67.536  34.840  0.00  0.00    +0.000 NA
ATOM      8  CD2 HIS G   1      12.775  68.126  36.149  0.00  0.00    +0.000 C 
ATOM      9  CE1 HIS G   1      14.008  68.728  34.441  0.00  0.00    +0.000 C 
ATOM     10  NE2 HIS G   1      13.011  69.105  35.220  0.00  0.00    +0.000 NA
ATOM     11  H   HIS G   1      12.170  63.906  38.738  0.00  0.00    +0.000 HD
ATOM     12  H   HIS G   1      13.767  64.372  38.806  0.00  0.00    +0.000 HD
ATOM     13  H   HIS G   1      13.225  63.441  37.536  0.00  0.00    +0.000 HD
TER 
REMARK  Name = /data/user_data/xianyang/t3-aimnet-affinity-balanced/L4/O00767/pocket.pdb
REMARK                            x       y       z     vdW  Elec       q    Type
REMARK                         _______ _______ _______ _____ _____    ______ ____
ATOM      1  N   ALA H   1      21.931  58.632  43.907  0.00  0.00    +0.000 N 
ATOM      2  CA  ALA H   1      22.383  59.935  43.449  0.00  0.00    +0.000 C 
ATOM      3  C   ALA H   1      22.506  60.947  44.577  0.00  0.00    +0.000 C 
ATOM      4  O   ALA H   1      23.071  62.020  44.378  0.00  0.00    +0.000 OA
ATOM      5  CB  ALA H   1      21.444  60.452  42.389  0.00  0.00    +0.000 C 
ATOM      6  N   PHE H   2      21.978  60.584  45.748  0.00  0.00    +0.000 N 
ATOM      7  CA  PHE H   2      21.986  61.413  46.961  0.00  0.00    +0.000 C 
ATOM      8  C   PHE H   2      21.890  62.917  46.690  0.00  0.00    +0.000 C 
ATOM      9  O   PHE H   2      22.765  63.702  47.063  0.00  0.00    +0.000 OA
ATOM     10  CB  PHE H   2      23.231  61.118  47.812  0.00  0.00    +0.000 C 
ATOM     11  CG  PHE H   2      23.257  61.851  49.135  0.00  0.00    +0.000 A 
ATOM     12  CD2 PHE H   2      22.081  62.254  49.752  0.00  0.00    +0.000 A 
ATOM     13  CD1 PHE H   2      24.462  62.158  49.745  0.00  0.00    +0.000 A 
ATOM     14  CE2 PHE H   2      22.110  62.939  50.950  0.00  0.00    +0.000 A 
ATOM     15  CE1 PHE H   2      24.494  62.841  50.944  0.00  0.00    +0.000 A 
ATOM     16  CZ  PHE H   2      23.317  63.230  51.545  0.00  0.00    +0.000 A 
ATOM     17  N   GLN H   3      20.828  63.302  46.006  0.00  0.00    +0.000 N 
ATOM     18  CA  GLN H   3      20.334  64.652  46.123  0.00  0.00    +0.000 C 
ATOM     19  C   GLN H   3      19.165  64.477  47.066  0.00  0.00    +0.000 C 
ATOM     20  O   GLN H   3      18.818  63.336  47.373  0.00  0.00    +0.000 OA
ATOM     21  CB  GLN H   3      19.943  65.231  44.770  0.00  0.00    +0.000 C 
ATOM     22  CG  GLN H   3      21.116  65.302  43.805  0.00  0.00    +0.000 C 
ATOM     23  CD  GLN H   3      20.736  65.854  42.451  0.00  0.00    +0.000 C 
ATOM     24  OE1 GLN H   3      19.556  65.961  42.112  0.00  0.00    +0.000 OA
ATOM     25  NE2 GLN H   3      21.740  66.196  41.658  0.00  0.00    +0.000 N 
ATOM     26  N   ASN H   4      18.576  65.565  47.549  0.00  0.00    +0.000 N 
ATOM     27  CA  ASN H   4      17.472  65.450  48.499  0.00  0.00    +0.000 C 
ATOM     28  C   ASN H   4      16.401  64.481  47.992  0.00  0.00    +0.000 C 
ATOM     29  O   ASN H   4      16.249  64.304  46.781  0.00  0.00    +0.000 OA
ATOM     30  CB  ASN H   4      16.865  66.825  48.777  0.00  0.00    +0.000 C 
ATOM     31  CG  ASN H   4      17.872  67.793  49.356  0.00  0.00    +0.000 C 
ATOM     32  OD1 ASN H   4      17.846  68.991  49.065  0.00  0.00    +0.000 OA
ATOM     33  ND2 ASN H   4      18.778  67.275  50.176  0.00  0.00    +0.000 N 
ATOM     34  H   ALA H   1      21.867  57.996  43.112  0.00  0.00    +0.000 HD
ATOM     35  H   ALA H   1      21.014  58.724  44.344  0.00  0.00    +0.000 HD
ATOM     36  H   ALA H   1      22.595  58.261  44.587  0.00  0.00    +0.000 HD
ATOM     37  H   PHE H   2      21.553  59.698  45.803  0.00  0.00    +0.000 HD
ATOM     38  H   GLN H   3      20.371  62.663  45.412  0.00  0.00    +0.000 HD
ATOM     39  H   GLN H   3      21.557  66.562  40.763  0.00  0.00    +0.000 HD
ATOM     40  H   GLN H   3      22.669  66.084  41.964  0.00  0.00    +0.000 HD
ATOM     41  H   ASN H   4      18.886  66.455  47.265  0.00  0.00    +0.000 HD
ATOM     42  H   ASN H   4      18.763  66.312  50.382  0.00  0.00    +0.000 HD
ATOM     43  H   ASN H   4      19.465  67.853  50.579  0.00  0.00    +0.000 HD
TER 
REMARK  Name = /data/user_data/xianyang/t3-aimnet-affinity-balanced/L4/O00767/pocket.pdb
REMARK                            x       y       z     vdW  Elec       q    Type
REMARK                         _______ _______ _______ _____ _____    ______ ____
ATOM      1  N   TYR I   1      10.614  63.753  47.200  0.00  0.00    +0.000 N 
ATOM      2  CA  TYR I   1       9.627  64.708  47.691  0.00  0.00    +0.000 C 
ATOM      3  C   TYR I   1      10.198  66.123  47.779  0.00  0.00    +0.000 C 
ATOM      4  O   TYR I   1       9.644  67.059  47.204  0.00  0.00    +0.000 OA
ATOM      5  CB  TYR I   1       9.100  64.275  49.060  0.00  0.00    +0.000 C 
ATOM      6  CG  TYR I   1       7.993  65.157  49.589  0.00  0.00    +0.000 A 
ATOM      7  CD1 TYR I   1       6.672  64.930  49.233  0.00  0.00    +0.000 A 
ATOM      8  CD2 TYR I   1       8.270  66.220  50.441  0.00  0.00    +0.000 A 
ATOM      9  CE1 TYR I   1       5.660  65.736  49.708  0.00  0.00    +0.000 A 
ATOM     10  CE2 TYR I   1       7.262  67.030  50.921  0.00  0.00    +0.000 A 
ATOM     11  CZ  TYR I   1       5.958  66.783  50.552  0.00  0.00    +0.000 A 
ATOM     12  OH  TYR I   1       4.946  67.584  51.026  0.00  0.00    +0.000 OA
ATOM     13  N   GLU I   2      11.302  66.275  48.504  0.00  0.00    +0.000 N 
ATOM     14  CA  GLU I   2      11.923  67.584  48.689  0.00  0.00    +0.000 C 
ATOM     15  C   GLU I   2      12.507  68.118  47.387  0.00  0.00    +0.000 C 
ATOM     16  O   GLU I   2      12.476  69.323  47.132  0.00  0.00    +0.000 OA
ATOM     17  CB  GLU I   2      13.014  67.513  49.756  0.00  0.00    +0.000 C 
ATOM     18  CG  GLU I   2      13.645  68.850  50.091  0.00  0.00    +0.000 C 
ATOM     19  CD  GLU I   2      14.789  68.707  51.068  0.00  0.00    +0.000 C 
ATOM     20  OE1 GLU I   2      15.387  69.736  51.446  0.00  0.00    +0.000 OA
ATOM     21  OE2 GLU I   2      15.091  67.560  51.458  0.00  0.00    +0.000 OA
ATOM     22  N   TRP I   3      13.043  67.213  46.571  0.00  0.00    +0.000 N 
ATOM     23  CA  TRP I   3      13.637  67.578  45.291  0.00  0.00    +0.000 C 
ATOM     24  C   TRP I   3      12.589  68.174  44.364  0.00  0.00    +0.000 C 
ATOM     25  O   TRP I   3      12.793  69.240  43.784  0.00  0.00    +0.000 OA
ATOM     26  CB  TRP I   3      14.290  66.361  44.631  0.00  0.00    +0.000 C 
ATOM     27  CG  TRP I   3      15.293  66.724  43.579  0.00  0.00    +0.000 C 
ATOM     28  CD1 TRP I   3      16.639  66.857  43.747  0.00  0.00    +0.000 C 
ATOM     29  CD2 TRP I   3      15.030  67.016  42.199  0.00  0.00    +0.000 A 
ATOM     30  NE1 TRP I   3      17.233  67.208  42.559  0.00  0.00    +0.000 NA
ATOM     31  CE2 TRP I   3      16.268  67.312  41.594  0.00  0.00    +0.000 A 
ATOM     32  CE3 TRP I   3      13.871  67.052  41.419  0.00  0.00    +0.000 A 
ATOM     33  CZ2 TRP I   3      16.378  67.642  40.241  0.00  0.00    +0.000 A 
ATOM     34  CZ3 TRP I   3      13.984  67.380  40.077  0.00  0.00    +0.000 A 
ATOM     35  CH2 TRP I   3      15.227  67.669  39.503  0.00  0.00    +0.000 A 
ATOM     36  H   TYR I   1      10.955  64.055  46.288  0.00  0.00    +0.000 HD
ATOM     37  H   TYR I   1      10.183  62.833  47.114  0.00  0.00    +0.000 HD
ATOM     38  H   TYR I   1      11.394  63.703  47.855  0.00  0.00    +0.000 HD
ATOM     39  H   TYR I   1       4.059  67.416  50.775  0.00  0.00    +0.000 HD
ATOM     40  H   GLU I   2      11.711  65.486  48.927  0.00  0.00    +0.000 HD
ATOM     41  H   TRP I   3      13.038  66.266  46.841  0.00  0.00    +0.000 HD
TER 
REMARK  Name = /data/user_data/xianyang/t3-aimnet-affinity-balanced/L4/O00767/pocket.pdb
REMARK                            x       y       z     vdW  Elec       q    Type
REMARK                         _______ _______ _______ _____ _____    ______ ____
ATOM      1  N   ARG J   1       9.586  69.280  45.286  0.00  0.00    +0.000 N 
ATOM      2  CA  ARG J   1       9.006  70.448  45.941  0.00  0.00    +0.000 C 
ATOM      3  C   ARG J   1       9.801  71.710  45.634  0.00  0.00    +0.000 C 
ATOM      4  O   ARG J   1       9.232  72.746  45.295  0.00  0.00    +0.000 OA
ATOM      5  CB  ARG J   1       8.934  70.235  47.453  0.00  0.00    +0.000 C 
ATOM      6  CG  ARG J   1       8.339  71.408  48.214  0.00  0.00    +0.000 C 
ATOM      7  CD  ARG J   1       8.384  71.162  49.707  0.00  0.00    +0.000 C 
ATOM      8  NE  ARG J   1       9.749  71.207  50.221  0.00  0.00    +0.000 N 
ATOM      9  CZ  ARG J   1      10.118  70.742  51.410  0.00  0.00    +0.000 C 
ATOM     10  NH2 ARG J   1       9.221  70.183  52.212  0.00  0.00    +0.000 N 
ATOM     11  NH1 ARG J   1      11.385  70.829  51.795  0.00  0.00    +0.000 N 
ATOM     12  N   ASP J   2      11.120  71.615  45.761  0.00  0.00    +0.000 N 
ATOM     13  CA  ASP J   2      11.993  72.738  45.456  0.00  0.00    +0.000 C 
ATOM     14  C   ASP J   2      11.930  73.052  43.976  0.00  0.00    +0.000 C 
ATOM     15  O   ASP J   2      11.957  74.216  43.574  0.00  0.00    +0.000 OA
ATOM     16  CB  ASP J   2      13.436  72.440  45.865  0.00  0.00    +0.000 C 
ATOM     17  CG  ASP J   2      13.645  72.514  47.358  0.00  0.00    +0.000 C 
ATOM     18  OD2 ASP J   2      12.675  72.289  48.112  0.00  0.00    +0.000 OA
ATOM     19  OD1 ASP J   2      14.785  72.798  47.776  0.00  0.00    +0.000 OA
ATOM     20  N   HIS J   3      11.837  72.004  43.166  0.00  0.00    +0.000 N 
ATOM     21  CA  HIS J   3      11.872  72.172  41.722  0.00  0.00    +0.000 C 
ATOM     22  C   HIS J   3      10.568  72.749  41.175  0.00  0.00    +0.000 C 
ATOM     23  O   HIS J   3      10.579  73.515  40.211  0.00  0.00    +0.000 OA
ATOM     24  CB  HIS J   3      12.180  70.845  41.034  0.00  0.00    +0.000 C 
ATOM     25  CG  HIS J   3      12.462  70.991  39.575  0.00  0.00    +0.000 A 
ATOM     26  ND1 HIS J   3      13.389  71.887  39.088  0.00  0.00    +0.000 N 
ATOM     27  CD2 HIS J   3      11.923  70.380  38.495  0.00  0.00    +0.000 A 
ATOM     28  CE1 HIS J   3      13.417  71.814  37.770  0.00  0.00    +0.000 A 
ATOM     29  NE2 HIS J   3      12.538  70.907  37.385  0.00  0.00    +0.000 NA
ATOM     30  H   ARG J   1       9.626  69.440  44.279  0.00  0.00    +0.000 HD
ATOM     31  H   ARG J   1       9.009  68.461  45.478  0.00  0.00    +0.000 HD
ATOM     32  H   ARG J   1      10.528  69.123  45.643  0.00  0.00    +0.000 HD
ATOM     33  H   ARG J   1      10.443  71.608  49.649  0.00  0.00    +0.000 HD
ATOM     34  H   ARG J   1       8.280  70.117  51.929  0.00  0.00    +0.000 HD
ATOM     35  H   ARG J   1       9.496  69.834  53.091  0.00  0.00    +0.000 HD
ATOM     36  H   ARG J   1      12.052  71.243  51.202  0.00  0.00    +0.000 HD
ATOM     37  H   ARG J   1      11.658  70.479  52.674  0.00  0.00    +0.000 HD
ATOM     38  H   ASP J   2      11.515  70.767  46.068  0.00  0.00    +0.000 HD
ATOM     39  H   HIS J   3      11.743  71.102  43.548  0.00  0.00    +0.000 HD
ATOM     40  H   HIS J   3      13.943  72.487  39.637  0.00  0.00    +0.000 HD
TER 
REMARK  Name = /data/user_data/xianyang/t3-aimnet-affinity-balanced/L4/O00767/pocket.pdb
REMARK                            x       y       z     vdW  Elec       q    Type
REMARK                         _______ _______ _______ _____ _____    ______ ____
ATOM      1  N   ALA K   1       8.911  74.853  42.680  0.00  0.00    +0.000 N 
ATOM      2  CA  ALA K   1       9.037  76.267  43.015  0.00  0.00    +0.000 C 
ATOM      3  C   ALA K   1      10.088  76.922  42.129  0.00  0.00    +0.000 C 
ATOM      4  O   ALA K   1      10.002  78.111  41.819  0.00  0.00    +0.000 OA
ATOM      5  CB  ALA K   1       9.393  76.445  44.483  0.00  0.00    +0.000 C 
ATOM      6  N   HIS K   2      11.082  76.136  41.723  0.00  0.00    +0.000 N 
ATOM      7  CA  HIS K   2      12.105  76.620  40.806  0.00  0.00    +0.000 C 
ATOM      8  C   HIS K   2      11.493  77.016  39.470  0.00  0.00    +0.000 C 
ATOM      9  O   HIS K   2      11.952  77.952  38.822  0.00  0.00    +0.000 OA
ATOM     10  CB  HIS K   2      13.190  75.566  40.581  0.00  0.00    +0.000 C 
ATOM     11  CG  HIS K   2      14.124  75.897  39.461  0.00  0.00    +0.000 A 
ATOM     12  ND1 HIS K   2      14.959  76.996  39.484  0.00  0.00    +0.000 N 
ATOM     13  CD2 HIS K   2      14.346  75.284  38.272  0.00  0.00    +0.000 A 
ATOM     14  CE1 HIS K   2      15.657  77.039  38.366  0.00  0.00    +0.000 A 
ATOM     15  NE2 HIS K   2      15.307  76.012  37.613  0.00  0.00    +0.000 NA
ATOM     16  N   HIS K   3      10.455  76.296  39.060  0.00  0.00    +0.000 N 
ATOM     17  CA  HIS K   3       9.779  76.603  37.810  0.00  0.00    +0.000 C 
ATOM     18  C   HIS K   3       8.793  77.757  37.987  0.00  0.00    +0.000 C 
ATOM     19  O   HIS K   3       8.927  78.792  37.334  0.00  0.00    +0.000 OA
ATOM     20  CB  HIS K   3       9.066  75.360  37.262  0.00  0.00    +0.000 C 
ATOM     21  CG  HIS K   3       9.927  74.500  36.398  0.00  0.00    +0.000 C 
ATOM     22  ND1 HIS K   3       9.897  74.554  35.012  0.00  0.00    +0.000 NA
ATOM     23  CD2 HIS K   3      10.849  73.550  36.703  0.00  0.00    +0.000 C 
ATOM     24  CE1 HIS K   3      10.755  73.687  34.521  0.00  0.00    +0.000 C 
ATOM     25  NE2 HIS K   3      11.347  73.065  35.520  0.00  0.00    +0.000 NA
ATOM     26  H   ALA K   1       8.672  74.757  41.693  0.00  0.00    +0.000 HD
ATOM     27  H   ALA K   1       8.177  74.433  43.250  0.00  0.00    +0.000 HD
ATOM     28  H   ALA K   1       9.796  74.380  42.863  0.00  0.00    +0.000 HD
ATOM     29  H   HIS K   2      11.127  75.208  42.049  0.00  0.00    +0.000 HD
ATOM     30  H   HIS K   2      15.023  77.646  40.220  0.00  0.00    +0.000 HD
ATOM     31  H   HIS K   3      10.139  75.544  39.610  0.00  0.00    +0.000 HD
TER 
REMARK  Name = /data/user_data/xianyang/t3-aimnet-affinity-balanced/L4/O00767/pocket.pdb
REMARK                            x       y       z     vdW  Elec       q    Type
REMARK                         _______ _______ _______ _____ _____    ______ ____
ATOM      1  N   ALA L   1      11.907  83.288  45.622  0.00  0.00    +0.000 N 
ATOM      2  CA  ALA L   1      11.227  82.041  45.946  0.00  0.00    +0.000 C 
ATOM      3  C   ALA L   1      11.849  80.897  45.157  0.00  0.00    +0.000 C 
ATOM      4  O   ALA L   1      11.395  79.753  45.231  0.00  0.00    +0.000 OA
ATOM      5  CB  ALA L   1       9.747  82.148  45.658  0.00  0.00    +0.000 C 
ATOM      6  H   ALA L   1      12.903  83.195  45.823  0.00  0.00    +0.000 HD
ATOM      7  H   ALA L   1      11.516  84.044  46.184  0.00  0.00    +0.000 HD
ATOM      8  H   ALA L   1      11.778  83.498  44.632  0.00  0.00    +0.000 HD
TER 
REMARK  Name = /data/user_data/xianyang/t3-aimnet-affinity-balanced/L4/O00767/pocket.pdb
REMARK                            x       y       z     vdW  Elec       q    Type
REMARK                         _______ _______ _______ _____ _____    ______ ____
ATOM      1  N   PRO M   1      14.878  78.550  44.900  0.00  0.00    +0.000 N 
ATOM      2  CA  PRO M   1      15.958  77.950  45.692  0.00  0.00    +0.000 C 
ATOM      3  C   PRO M   1      17.349  78.161  45.101  0.00  0.00    +0.000 C 
ATOM      4  O   PRO M   1      18.304  78.363  45.851  0.00  0.00    +0.000 OA
ATOM      5  CB  PRO M   1      15.599  76.456  45.707  0.00  0.00    +0.000 C 
ATOM      6  CG  PRO M   1      14.457  76.291  44.744  0.00  0.00    +0.000 C 
ATOM      7  CD  PRO M   1      13.765  77.607  44.717  0.00  0.00    +0.000 C 
ATOM      8  N   HIS M   2      17.466  78.116  43.780  0.00  0.00    +0.000 N 
ATOM      9  CA  HIS M   2      18.744  78.399  43.137  0.00  0.00    +0.000 C 
ATOM     10  C   HIS M   2      18.642  79.614  42.214  0.00  0.00    +0.000 C 
ATOM     11  O   HIS M   2      18.950  79.527  41.024  0.00  0.00    +0.000 OA
ATOM     12  CB  HIS M   2      19.244  77.178  42.358  0.00  0.00    +0.000 C 
ATOM     13  CG  HIS M   2      18.287  76.026  42.350  0.00  0.00    +0.000 C 
ATOM     14  ND1 HIS M   2      17.364  75.833  41.343  0.00  0.00    +0.000 NA
ATOM     15  CD2 HIS M   2      18.115  75.003  43.214  0.00  0.00    +0.000 C 
ATOM     16  CE1 HIS M   2      16.665  74.743  41.588  0.00  0.00    +0.000 C 
ATOM     17  NE2 HIS M   2      17.102  74.217  42.728  0.00  0.00    +0.000 NA
ATOM     18  H   PRO M   1      14.534  79.381  45.382  0.00  0.00    +0.000 HD
ATOM     19  H   PRO M   1      15.249  78.794  43.982  0.00  0.00    +0.000 HD
ATOM     20  H   HIS M   2      16.682  77.889  43.229  0.00  0.00    +0.000 HD
TER 
REMARK  Name = /data/user_data/xianyang/t3-aimnet-affinity-balanced/L4/O00767/pocket.pdb
REMARK                            x       y       z     vdW  Elec       q    Type
REMARK                         _______ _______ _______ _____ _____    ______ ____
ATOM      1  N   TRP N   1      23.791  77.964  47.167  0.00  0.00    +0.000 N 
ATOM      2  CA  TRP N   1      22.464  77.889  47.771  0.00  0.00    +0.000 C 
ATOM      3  C   TRP N   1      22.337  76.701  48.717  0.00  0.00    +0.000 C 
ATOM      4  O   TRP N   1      21.409  76.636  49.522  0.00  0.00    +0.000 OA
ATOM      5  CB  TRP N   1      21.388  77.799  46.689  0.00  0.00    +0.000 C 
ATOM      6  CG  TRP N   1      21.387  76.491  45.959  0.00  0.00    +0.000 C 
ATOM      7  CD1 TRP N   1      22.254  76.100  44.981  0.00  0.00    +0.000 C 
ATOM      8  CD2 TRP N   1      20.478  75.397  46.151  0.00  0.00    +0.000 C 
ATOM      9  NE1 TRP N   1      21.941  74.835  44.548  0.00  0.00    +0.000 NA
ATOM     10  CE2 TRP N   1      20.855  74.381  45.249  0.00  0.00    +0.000 C 
ATOM     11  CE3 TRP N   1      19.382  75.180  46.992  0.00  0.00    +0.000 C 
ATOM     12  CZ2 TRP N   1      20.175  73.165  45.169  0.00  0.00    +0.000 C 
ATOM     13  CZ3 TRP N   1      18.708  73.972  46.908  0.00  0.00    +0.000 C 
ATOM     14  CH2 TRP N   1      19.107  72.981  46.001  0.00  0.00    +0.000 C 
ATOM     15  N   LEU N   2      23.266  75.757  48.603  0.00  0.00    +0.000 N 
ATOM     16  CA  LEU N   2      23.281  74.581  49.464  0.00  0.00    +0.000 C 
ATOM     17  C   LEU N   2      24.135  74.824  50.698  0.00  0.00    +0.000 C 
ATOM     18  O   LEU N   2      24.180  74.000  51.610  0.00  0.00    +0.000 OA
ATOM     19  CB  LEU N   2      23.807  73.364  48.705  0.00  0.00    +0.000 C 
ATOM     20  CG  LEU N   2      22.898  72.762  47.642  0.00  0.00    +0.000 C 
ATOM     21  CD1 LEU N   2      23.631  71.652  46.908  0.00  0.00    +0.000 C 
ATOM     22  CD2 LEU N   2      21.631  72.242  48.292  0.00  0.00    +0.000 C 
ATOM     23  N   LEU N   3      24.821  75.959  50.714  0.00  0.00    +0.000 N 
ATOM     24  CA  LEU N   3      25.699  76.299  51.818  0.00  0.00    +0.000 C 
ATOM     25  C   LEU N   3      25.085  77.398  52.671  0.00  0.00    +0.000 C 
ATOM     26  O   LEU N   3      25.711  77.879  53.610  0.00  0.00    +0.000 OA
ATOM     27  CB  LEU N   3      27.067  76.735  51.292  0.00  0.00    +0.000 C 
ATOM     28  CG  LEU N   3      27.665  75.887  50.169  0.00  0.00    +0.000 C 
ATOM     29  CD1 LEU N   3      28.947  76.518  49.656  0.00  0.00    +0.000 C 
ATOM     30  CD2 LEU N   3      27.911  74.460  50.635  0.00  0.00    +0.000 C 
ATOM     31  N   VAL N   4      23.860  77.797  52.338  0.00  0.00    +0.000 N 
ATOM     32  CA  VAL N   4      23.178  78.860  53.074  0.00  0.00    +0.000 C 
ATOM     33  C   VAL N   4      21.726  78.517  53.386  0.00  0.00    +0.000 C 
ATOM     34  O   VAL N   4      21.127  77.648  52.756  0.00  0.00    +0.000 OA
ATOM     35  CB  VAL N   4      23.195  80.199  52.303  0.00  0.00    +0.000 C 
ATOM     36  CG2 VAL N   4      24.623  80.663  52.066  0.00  0.00    +0.000 C 
ATOM     37  CG1 VAL N   4      22.433  80.076  50.995  0.00  0.00    +0.000 C 
ATOM     38  N   ARG N   5      21.163  79.213  54.368  0.00  0.00    +0.000 N 
ATOM     39  CA  ARG N   5      19.757  79.046  54.702  0.00  0.00    +0.000 C 
ATOM     40  C   ARG N   5      18.907  79.538  53.543  0.00  0.00    +0.000 C 
ATOM     41  O   ARG N   5      19.262  80.512  52.880  0.00  0.00    +0.000 OA
ATOM     42  CB  ARG N   5      19.407  79.802  55.980  0.00  0.00    +0.000 C 
ATOM     43  CG  ARG N   5      20.063  79.227  57.221  0.00  0.00    +0.000 C 
ATOM     44  CD  ARG N   5      19.483  77.872  57.578  0.00  0.00    +0.000 C 
ATOM     45  NE  ARG N   5      20.355  77.110  58.469  0.00  0.00    +0.000 N 
ATOM     46  CZ  ARG N   5      20.062  75.909  58.961  0.00  0.00    +0.000 C 
ATOM     47  NH1 ARG N   5      18.910  75.327  58.660  0.00  0.00    +0.000 N 
ATOM     48  NH2 ARG N   5      20.919  75.289  59.759  0.00  0.00    +0.000 N 
ATOM     49  N   LYS N   6      17.801  78.851  53.282  0.00  0.00    +0.000 N 
ATOM     50  CA  LYS N   6      16.885  79.271  52.229  0.00  0.00    +0.000 C 
ATOM     51  C   LYS N   6      16.301  80.645  52.554  0.00  0.00    +0.000 C 
ATOM     52  O   LYS N   6      15.843  80.884  53.670  0.00  0.00    +0.000 OA
ATOM     53  CB  LYS N   6      15.766  78.239  52.039  0.00  0.00    +0.000 C 
ATOM     54  CG  LYS N   6      16.200  76.959  51.319  0.00  0.00    +0.000 C 
ATOM     55  CD  LYS N   6      15.099  75.903  51.293  0.00  0.00    +0.000 C 
ATOM     56  CE  LYS N   6      15.565  74.634  50.574  0.00  0.00    +0.000 C 
ATOM     57  NZ  LYS N   6      14.671  73.449  50.817  0.00  0.00    +0.000 N 
ATOM     58  N   HIS N   7      16.360  81.552  51.583  0.00  0.00    +0.000 N 
ATOM     59  CA  HIS N   7      15.701  82.848  51.687  0.00  0.00    +0.000 C 
ATOM     60  C   HIS N   7      14.236  82.614  52.034  0.00  0.00    +0.000 C 
ATOM     61  O   HIS N   7      13.600  81.732  51.461  0.00  0.00    +0.000 OA
ATOM     62  CB  HIS N   7      15.850  83.633  50.378  0.00  0.00    +0.000 C 
ATOM     63  CG  HIS N   7      15.171  84.972  50.380  0.00  0.00    +0.000 C 
ATOM     64  ND1 HIS N   7      13.808  85.114  50.284  0.00  0.00    +0.000 NA
ATOM     65  CD2 HIS N   7      15.682  86.224  50.434  0.00  0.00    +0.000 C 
ATOM     66  CE1 HIS N   7      13.498  86.400  50.298  0.00  0.00    +0.000 C 
ATOM     67  NE2 HIS N   7      14.620  87.096  50.388  0.00  0.00    +0.000 NA
ATOM     68  H   TRP N   1      23.835  78.769  46.543  0.00  0.00    +0.000 HD
ATOM     69  H   TRP N   1      23.972  77.112  46.636  0.00  0.00    +0.000 HD
ATOM     70  H   TRP N   1      24.493  78.063  47.900  0.00  0.00    +0.000 HD
ATOM     71  H   LEU N   2      23.965  75.855  47.916  0.00  0.00    +0.000 HD
ATOM     72  H   LEU N   3      24.732  76.585  49.959  0.00  0.00    +0.000 HD
ATOM     73  H   VAL N   4      23.403  77.367  51.579  0.00  0.00    +0.000 HD
ATOM     74  H   ARG N   5      21.708  79.854  54.879  0.00  0.00    +0.000 HD
ATOM     75  H   ARG N   5      21.217  77.512  58.722  0.00  0.00    +0.000 HD
ATOM     76  H   ARG N   5      18.269  75.782  58.068  0.00  0.00    +0.000 HD
ATOM     77  H   ARG N   5      18.696  74.440  59.029  0.00  0.00    +0.000 HD
ATOM     78  H   ARG N   5      21.777  75.716  59.987  0.00  0.00    +0.000 HD
ATOM     79  H   ARG N   5      20.698  74.402  60.124  0.00  0.00    +0.000 HD
ATOM     80  H   LYS N   6      17.596  78.045  53.808  0.00  0.00    +0.000 HD
ATOM     81  H   LYS N   6      13.737  73.648  50.458  0.00  0.00    +0.000 HD
ATOM     82  H   LYS N   6      14.618  73.263  51.818  0.00  0.00    +0.000 HD
ATOM     83  H   LYS N   6      15.052  72.632  50.339  0.00  0.00    +0.000 HD
ATOM     84  H   HIS N   7      16.866  81.341  50.766  0.00  0.00    +0.000 HD
TER 
REMARK  Name = /data/user_data/xianyang/t3-aimnet-affinity-balanced/L4/O00767/pocket.pdb
REMARK                            x       y       z     vdW  Elec       q    Type
REMARK                         _______ _______ _______ _____ _____    ______ ____
ATOM      1  N   VAL O   1      11.278  81.414  49.799  0.00  0.00    +0.000 N 
ATOM      2  CA  VAL O   1      11.258  80.074  49.218  0.00  0.00    +0.000 C 
ATOM      3  C   VAL O   1      10.147  79.211  49.811  0.00  0.00    +0.000 C 
ATOM      4  O   VAL O   1       9.397  78.574  49.079  0.00  0.00    +0.000 OA
ATOM      5  CB  VAL O   1      12.608  79.355  49.401  0.00  0.00    +0.000 C 
ATOM      6  CG2 VAL O   1      12.506  77.909  48.940  0.00  0.00    +0.000 C 
ATOM      7  CG1 VAL O   1      13.702  80.088  48.637  0.00  0.00    +0.000 C 
ATOM      8  N   LYS O   2      10.030  79.193  51.134  0.00  0.00    +0.000 N 
ATOM      9  CA  LYS O   2       8.947  78.443  51.762  0.00  0.00    +0.000 C 
ATOM     10  C   LYS O   2       7.754  79.346  52.059  0.00  0.00    +0.000 C 
ATOM     11  O   LYS O   2       6.697  78.879  52.482  0.00  0.00    +0.000 OA
ATOM     12  CB  LYS O   2       9.428  77.754  53.041  0.00  0.00    +0.000 C 
ATOM     13  CG  LYS O   2      10.160  78.651  54.021  0.00  0.00    +0.000 C 
ATOM     14  CD  LYS O   2      10.491  77.883  55.295  0.00  0.00    +0.000 C 
ATOM     15  CE  LYS O   2      11.404  78.672  56.215  0.00  0.00    +0.000 C 
ATOM     16  NZ  LYS O   2      12.766  78.842  55.642  0.00  0.00    +0.000 N 
ATOM     17  H   VAL O   1      12.032  81.956  49.377  0.00  0.00    +0.000 HD
ATOM     18  H   VAL O   1      11.430  81.346  50.805  0.00  0.00    +0.000 HD
ATOM     19  H   VAL O   1      10.386  81.875  49.620  0.00  0.00    +0.000 HD
ATOM     20  H   LYS O   2      10.674  79.686  51.691  0.00  0.00    +0.000 HD
ATOM     21  H   LYS O   2      13.195  77.926  55.507  0.00  0.00    +0.000 HD
ATOM     22  H   LYS O   2      13.337  79.394  56.281  0.00  0.00    +0.000 HD
ATOM     23  H   LYS O   2      12.700  79.322  54.744  0.00  0.00    +0.000 HD
TER 
REMARK  Name = /data/user_data/xianyang/t3-aimnet-affinity-balanced/L4/O00767/pocket.pdb
REMARK                            x       y       z     vdW  Elec       q    Type
REMARK                         _______ _______ _______ _____ _____    ______ ____
ATOM      1  N   GLY P   1       6.668  79.086  48.269  0.00  0.00    +0.000 N 
ATOM      2  CA  GLY P   1       6.724  77.695  47.859  0.00  0.00    +0.000 C 
ATOM      3  C   GLY P   1       5.769  76.808  48.627  0.00  0.00    +0.000 C 
ATOM      4  O   GLY P   1       5.603  75.634  48.306  0.00  0.00    +0.000 OA
ATOM      5  N   SER P   2       5.137  77.369  49.651  0.00  0.00    +0.000 N 
ATOM      6  CA  SER P   2       4.126  76.643  50.409  0.00  0.00    +0.000 C 
ATOM      7  C   SER P   2       2.812  76.612  49.636  0.00  0.00    +0.000 C 
ATOM      8  O   SER P   2       1.852  75.956  50.041  0.00  0.00    +0.000 OA
ATOM      9  CB  SER P   2       3.929  77.275  51.788  0.00  0.00    +0.000 C 
ATOM     10  OG  SER P   2       3.962  78.688  51.705  0.00  0.00    +0.000 OA
ATOM     11  H   GLY P   1       7.331  79.630  47.717  0.00  0.00    +0.000 HD
ATOM     12  H   GLY P   1       6.908  79.159  49.258  0.00  0.00    +0.000 HD
ATOM     13  H   GLY P   1       5.726  79.447  48.120  0.00  0.00    +0.000 HD
ATOM     14  H   SER P   2       5.356  78.295  49.904  0.00  0.00    +0.000 HD
ATOM     15  H   SER P   2       4.824  78.972  51.362  0.00  0.00    +0.000 HD
TER 
REMARK  Name = /data/user_data/xianyang/t3-aimnet-affinity-balanced/L4/O00767/pocket.pdb
REMARK                            x       y       z     vdW  Elec       q    Type
REMARK                         _______ _______ _______ _____ _____    ______ ____
ATOM      1  N   LEU Q   1       2.537  75.536  46.355  0.00  0.00    +0.000 N 
ATOM      2  CA  LEU Q   1       2.539  74.404  45.430  0.00  0.00    +0.000 C 
ATOM      3  C   LEU Q   1       1.687  73.216  45.862  0.00  0.00    +0.000 C 
ATOM      4  O   LEU Q   1       1.576  72.906  47.048  0.00  0.00    +0.000 OA
ATOM      5  CB  LEU Q   1       3.976  73.927  45.209  0.00  0.00    +0.000 C 
ATOM      6  CG  LEU Q   1       5.016  75.031  45.012  0.00  0.00    +0.000 C 
ATOM      7  CD2 LEU Q   1       6.400  74.431  44.889  0.00  0.00    +0.000 C 
ATOM      8  CD1 LEU Q   1       4.686  75.892  43.801  0.00  0.00    +0.000 C 
ATOM      9  H   LEU Q   1       3.130  76.279  45.985  0.00  0.00    +0.000 HD
ATOM     10  H   LEU Q   1       2.895  75.235  47.262  0.00  0.00    +0.000 HD
ATOM     11  H   LEU Q   1       1.585  75.884  46.464  0.00  0.00    +0.000 HD
TER 
REMARK  Name = /data/user_data/xianyang/t3-aimnet-affinity-balanced/L4/O00767/pocket.pdb
REMARK                            x       y       z     vdW  Elec       q    Type
REMARK                         _______ _______ _______ _____ _____    ______ ____
ATOM      1  N   LEU R   1       1.476  69.523  46.219  0.00  0.00    +0.000 N 
ATOM      2  CA  LEU R   1       2.378  68.381  46.298  0.00  0.00    +0.000 C 
ATOM      3  C   LEU R   1       1.597  67.102  46.557  0.00  0.00    +0.000 C 
ATOM      4  O   LEU R   1       2.172  66.074  46.914  0.00  0.00    +0.000 OA
ATOM      5  CB  LEU R   1       3.419  68.602  47.392  0.00  0.00    +0.000 C 
ATOM      6  CG  LEU R   1       4.221  69.893  47.235  0.00  0.00    +0.000 C 
ATOM      7  CD2 LEU R   1       4.921  70.246  48.533  0.00  0.00    +0.000 C 
ATOM      8  CD1 LEU R   1       5.222  69.765  46.097  0.00  0.00    +0.000 C 
ATOM      9  H   LEU R   1       0.787  69.362  45.485  0.00  0.00    +0.000 HD
ATOM     10  H   LEU R   1       2.011  70.365  46.004  0.00  0.00    +0.000 HD
ATOM     11  H   LEU R   1       0.999  69.642  47.113  0.00  0.00    +0.000 HD
TER 
REMARK  Name = /data/user_data/xianyang/t3-aimnet-affinity-balanced/L4/O00767/pocket.pdb
REMARK                            x       y       z     vdW  Elec       q    Type
REMARK                         _______ _______ _______ _____ _____    ______ ____
ATOM      1  N   ARG S   1      11.376  58.747  51.535  0.00  0.00    +0.000 N 
ATOM      2  CA  ARG S   1      11.524  59.961  52.327  0.00  0.00    +0.000 C 
ATOM      3  C   ARG S   1      11.784  59.609  53.784  0.00  0.00    +0.000 C 
ATOM      4  O   ARG S   1      12.587  60.257  54.455  0.00  0.00    +0.000 OA
ATOM      5  CB  ARG S   1      10.285  60.851  52.205  0.00  0.00    +0.000 C 
ATOM      6  CG  ARG S   1      10.353  62.102  53.063  0.00  0.00    +0.000 C 
ATOM      7  CD  ARG S   1       9.131  62.985  52.865  0.00  0.00    +0.000 C 
ATOM      8  NE  ARG S   1       9.222  64.226  53.628  0.00  0.00    +0.000 N 
ATOM      9  CZ  ARG S   1      10.018  65.241  53.307  0.00  0.00    +0.000 C 
ATOM     10  NH1 ARG S   1      10.801  65.158  52.240  0.00  0.00    +0.000 N 
ATOM     11  NH2 ARG S   1      10.040  66.335  54.054  0.00  0.00    +0.000 N 
ATOM     12  H   ARG S   1      11.202  58.995  50.561  0.00  0.00    +0.000 HD
ATOM     13  H   ARG S   1      10.591  58.202  51.892  0.00  0.00    +0.000 HD
ATOM     14  H   ARG S   1      12.231  58.194  51.598  0.00  0.00    +0.000 HD
ATOM     15  H   ARG S   1       8.659  64.317  54.430  0.00  0.00    +0.000 HD
ATOM     16  H   ARG S   1      10.788  64.347  51.682  0.00  0.00    +0.000 HD
ATOM     17  H   ARG S   1      11.395  65.907  52.006  0.00  0.00    +0.000 HD
ATOM     18  H   ARG S   1      10.631  67.084  53.812  0.00  0.00    +0.000 HD
ATOM     19  H   ARG S   1       9.465  66.399  54.851  0.00  0.00    +0.000 HD
TER 
REMARK  Name = /data/user_data/xianyang/t3-aimnet-affinity-balanced/L4/O00767/pocket.pdb
REMARK                            x       y       z     vdW  Elec       q    Type
REMARK                         _______ _______ _______ _____ _____    ______ ____
ATOM      1  N   TYR T   1      30.346  60.646  42.746  0.00  0.00    +0.000 N 
ATOM      2  CA  TYR T   1      29.253  61.369  43.392  0.00  0.00    +0.000 C 
ATOM      3  C   TYR T   1      29.411  62.875  43.213  0.00  0.00    +0.000 C 
ATOM      4  O   TYR T   1      28.430  63.586  43.001  0.00  0.00    +0.000 OA
ATOM      5  CB  TYR T   1      29.154  61.030  44.881  0.00  0.00    +0.000 C 
ATOM      6  CG  TYR T   1      28.110  61.856  45.599  0.00  0.00    +0.000 A 
ATOM      7  CD1 TYR T   1      26.764  61.711  45.301  0.00  0.00    +0.000 A 
ATOM      8  CD2 TYR T   1      28.472  62.789  46.563  0.00  0.00    +0.000 A 
ATOM      9  CE1 TYR T   1      25.804  62.470  45.943  0.00  0.00    +0.000 A 
ATOM     10  CE2 TYR T   1      27.518  63.553  47.212  0.00  0.00    +0.000 A 
ATOM     11  CZ  TYR T   1      26.184  63.390  46.898  0.00  0.00    +0.000 A 
ATOM     12  OH  TYR T   1      25.226  64.147  47.537  0.00  0.00    +0.000 OA
ATOM     13  H   TYR T   1      30.382  60.896  41.758  0.00  0.00    +0.000 HD
ATOM     14  H   TYR T   1      30.190  59.642  42.837  0.00  0.00    +0.000 HD
ATOM     15  H   TYR T   1      31.229  60.895  43.192  0.00  0.00    +0.000 HD
ATOM     16  H   TYR T   1      24.321  64.035  47.323  0.00  0.00    +0.000 HD
TER 
REMARK  Name = /data/user_data/xianyang/t3-aimnet-affinity-balanced/L4/O00767/pocket.pdb
REMARK                            x       y       z     vdW  Elec       q    Type
REMARK                         _______ _______ _______ _____ _____    ______ ____
ATOM      1  N   VAL U   1      28.436  63.648  39.583  0.00  0.00    +0.000 N 
ATOM      2  CA  VAL U   1      26.994  63.714  39.403  0.00  0.00    +0.000 C 
ATOM      3  C   VAL U   1      26.446  65.018  39.971  0.00  0.00    +0.000 C 
ATOM      4  O   VAL U   1      25.573  65.631  39.370  0.00  0.00    +0.000 OA
ATOM      5  CB  VAL U   1      26.273  62.523  40.061  0.00  0.00    +0.000 C 
ATOM      6  CG2 VAL U   1      24.777  62.613  39.820  0.00  0.00    +0.000 C 
ATOM      7  CG1 VAL U   1      26.808  61.213  39.515  0.00  0.00    +0.000 C 
ATOM      8  N   LEU U   2      26.977  65.455  41.109  0.00  0.00    +0.000 N 
ATOM      9  CA  LEU U   2      26.511  66.689  41.735  0.00  0.00    +0.000 C 
ATOM     10  C   LEU U   2      26.665  67.904  40.827  0.00  0.00    +0.000 C 
ATOM     11  O   LEU U   2      25.679  68.548  40.477  0.00  0.00    +0.000 OA
ATOM     12  CB  LEU U   2      27.251  66.935  43.046  0.00  0.00    +0.000 C 
ATOM     13  CG  LEU U   2      26.735  66.168  44.260  0.00  0.00    +0.000 C 
ATOM     14  CD2 LEU U   2      27.521  66.576  45.488  0.00  0.00    +0.000 C 
ATOM     15  CD1 LEU U   2      25.248  66.413  44.458  0.00  0.00    +0.000 C 
ATOM     16  H   VAL U   1      28.872  64.453  39.133  0.00  0.00    +0.000 HD
ATOM     17  H   VAL U   1      28.792  62.790  39.163  0.00  0.00    +0.000 HD
ATOM     18  H   VAL U   1      28.655  63.655  40.579  0.00  0.00    +0.000 HD
ATOM     19  H   LEU U   2      27.697  64.937  41.537  0.00  0.00    +0.000 HD
TER 
REMARK  Name = /data/user_data/xianyang/t3-aimnet-affinity-balanced/L4/O00767/pocket.pdb
REMARK                            x       y       z     vdW  Elec       q    Type
REMARK                         _______ _______ _______ _____ _____    ______ ____
ATOM      1  N   ALA V   1      27.483  68.088  37.666  0.00  0.00    +0.000 N 
ATOM      2  CA  ALA V   1      26.846  67.859  36.377  0.00  0.00    +0.000 C 
ATOM      3  C   ALA V   1      25.400  68.338  36.392  0.00  0.00    +0.000 C 
ATOM      4  O   ALA V   1      24.915  68.865  35.397  0.00  0.00    +0.000 OA
ATOM      5  CB  ALA V   1      26.912  66.387  35.996  0.00  0.00    +0.000 C 
ATOM      6  N   THR V   2      24.716  68.160  37.520  0.00  0.00    +0.000 N 
ATOM      7  CA  THR V   2      23.360  68.673  37.665  0.00  0.00    +0.000 C 
ATOM      8  C   THR V   2      23.381  70.129  38.085  0.00  0.00    +0.000 C 
ATOM      9  O   THR V   2      22.432  70.852  37.830  0.00  0.00    +0.000 OA
ATOM     10  CB  THR V   2      22.528  67.907  38.724  0.00  0.00    +0.000 C 
ATOM     11  OG1 THR V   2      22.890  68.342  40.039  0.00  0.00    +0.000 OA
ATOM     12  CG2 THR V   2      22.770  66.428  38.646  0.00  0.00    +0.000 C 
ATOM     13  N   TRP V   3      24.418  70.539  38.808  0.00  0.00    +0.000 N 
ATOM     14  CA  TRP V   3      24.481  71.911  39.302  0.00  0.00    +0.000 C 
ATOM     15  C   TRP V   3      24.656  72.875  38.140  0.00  0.00    +0.000 C 
ATOM     16  O   TRP V   3      24.185  74.011  38.186  0.00  0.00    +0.000 OA
ATOM     17  CB  TRP V   3      25.614  72.075  40.313  0.00  0.00    +0.000 C 
ATOM     18  CG  TRP V   3      25.378  71.352  41.600  0.00  0.00    +0.000 C 
ATOM     19  CD1 TRP V   3      24.204  70.811  42.036  0.00  0.00    +0.000 C 
ATOM     20  CD2 TRP V   3      26.348  71.077  42.614  0.00  0.00    +0.000 C 
ATOM     21  NE1 TRP V   3      24.382  70.220  43.264  0.00  0.00    +0.000 NA
ATOM     22  CE2 TRP V   3      25.692  70.370  43.640  0.00  0.00    +0.000 C 
ATOM     23  CE3 TRP V   3      27.710  71.364  42.754  0.00  0.00    +0.000 C 
ATOM     24  CZ2 TRP V   3      26.347  69.944  44.789  0.00  0.00    +0.000 C 
ATOM     25  CZ3 TRP V   3      28.359  70.941  43.894  0.00  0.00    +0.000 C 
ATOM     26  CH2 TRP V   3      27.679  70.238  44.897  0.00  0.00    +0.000 C 
ATOM     27  H   ALA V   1      28.448  67.760  37.631  0.00  0.00    +0.000 HD
ATOM     28  H   ALA V   1      26.977  67.579  38.391  0.00  0.00    +0.000 HD
ATOM     29  H   ALA V   1      27.470  69.085  37.879  0.00  0.00    +0.000 HD
ATOM     30  H   THR V   2      25.133  67.674  38.268  0.00  0.00    +0.000 HD
ATOM     31  H   THR V   2      23.827  68.148  40.197  0.00  0.00    +0.000 HD
ATOM     32  H   TRP V   3      25.149  69.912  39.012  0.00  0.00    +0.000 HD
TER 
REMARK  Name = /data/user_data/xianyang/t3-aimnet-affinity-balanced/L4/O00767/pocket.pdb
REMARK                            x       y       z     vdW  Elec       q    Type
REMARK                         _______ _______ _______ _____ _____    ______ ____
ATOM      1  N   VAL W   1      23.152  72.622  35.474  0.00  0.00    +0.000 N 
ATOM      2  CA  VAL W   1      21.819  72.846  34.931  0.00  0.00    +0.000 C 
ATOM      3  C   VAL W   1      21.146  74.064  35.586  0.00  0.00    +0.000 C 
ATOM      4  O   VAL W   1      20.261  74.681  34.994  0.00  0.00    +0.000 OA
ATOM      5  CB  VAL W   1      20.928  71.593  35.097  0.00  0.00    +0.000 C 
ATOM      6  CG1 VAL W   1      19.657  71.733  34.291  0.00  0.00    +0.000 C 
ATOM      7  CG2 VAL W   1      21.684  70.343  34.655  0.00  0.00    +0.000 C 
ATOM      8  N   ASN W   2      21.574  74.418  36.799  0.00  0.00    +0.000 N 
ATOM      9  CA  ASN W   2      21.059  75.608  37.485  0.00  0.00    +0.000 C 
ATOM     10  C   ASN W   2      21.978  76.806  37.306  0.00  0.00    +0.000 C 
ATOM     11  O   ASN W   2      21.530  77.943  37.146  0.00  0.00    +0.000 OA
ATOM     12  CB  ASN W   2      20.882  75.348  38.985  0.00  0.00    +0.000 C 
ATOM     13  CG  ASN W   2      19.866  74.255  39.288  0.00  0.00    +0.000 C 
ATOM     14  OD1 ASN W   2      18.874  74.091  38.577  0.00  0.00    +0.000 OA
ATOM     15  ND2 ASN W   2      20.108  73.509  40.361  0.00  0.00    +0.000 N 
ATOM     16  H   VAL W   1      23.571  71.810  35.021  0.00  0.00    +0.000 HD
ATOM     17  H   VAL W   1      23.087  72.455  36.478  0.00  0.00    +0.000 HD
ATOM     18  H   VAL W   1      23.731  73.444  35.303  0.00  0.00    +0.000 HD
ATOM     19  H   ASN W   2      22.255  73.865  37.246  0.00  0.00    +0.000 HD
ATOM     20  H   ASN W   2      19.487  72.786  40.608  0.00  0.00    +0.000 HD
ATOM     21  H   ASN W   2      20.908  73.679  40.908  0.00  0.00    +0.000 HD
TER 
REMARK  Name = /data/user_data/xianyang/t3-aimnet-affinity-balanced/L4/O00767/pocket.pdb
REMARK                            x       y       z     vdW  Elec       q    Type
REMARK                         _______ _______ _______ _____ _____    ______ ____
ATOM      1  N   GLY X   1      26.666  67.090  29.728  0.00  0.00    +0.000 N 
ATOM      2  CA  GLY X   1      27.058  66.925  31.117  0.00  0.00    +0.000 C 
ATOM      3  C   GLY X   1      25.968  66.190  31.874  0.00  0.00    +0.000 C 
ATOM      4  O   GLY X   1      26.168  65.064  32.331  0.00  0.00    +0.000 OA
ATOM      5  N   ALA X   2      24.802  66.820  31.995  0.00  0.00    +0.000 N 
ATOM      6  CA  ALA X   2      23.609  66.109  32.435  0.00  0.00    +0.000 C 
ATOM      7  C   ALA X   2      23.314  65.039  31.399  0.00  0.00    +0.000 C 
ATOM      8  O   ALA X   2      23.973  64.970  30.363  0.00  0.00    +0.000 OA
ATOM      9  CB  ALA X   2      22.426  67.050  32.600  0.00  0.00    +0.000 C 
ATOM     10  N   VAL X   3      22.321  64.204  31.648  0.00  0.00    +0.000 N 
ATOM     11  CA  VAL X   3      22.124  63.078  30.756  0.00  0.00    +0.000 C 
ATOM     12  C   VAL X   3      21.086  63.431  29.680  0.00  0.00    +0.000 C 
ATOM     13  O   VAL X   3      20.684  62.590  28.873  0.00  0.00    +0.000 OA
ATOM     14  CB  VAL X   3      21.746  61.811  31.559  0.00  0.00    +0.000 C 
ATOM     15  CG2 VAL X   3      20.236  61.673  31.721  0.00  0.00    +0.000 C 
ATOM     16  CG1 VAL X   3      22.355  60.584  30.910  0.00  0.00    +0.000 C 
ATOM     17  N   GLY X   4      20.697  64.701  29.648  0.00  0.00    +0.000 N 
ATOM     18  CA  GLY X   4      19.809  65.206  28.618  0.00  0.00    +0.000 C 
ATOM     19  C   GLY X   4      19.175  66.529  29.004  0.00  0.00    +0.000 C 
ATOM     20  O   GLY X   4      18.610  67.226  28.163  0.00  0.00    +0.000 OA
ATOM     21  N   GLU X   5      19.274  66.880  30.283  0.00  0.00    +0.000 N 
ATOM     22  CA  GLU X   5      18.629  68.083  30.800  0.00  0.00    +0.000 C 
ATOM     23  C   GLU X   5      19.526  69.308  30.678  0.00  0.00    +0.000 C 
ATOM     24  O   GLU X   5      20.085  69.772  31.670  0.00  0.00    +0.000 OA
ATOM     25  CB  GLU X   5      18.231  67.888  32.264  0.00  0.00    +0.000 C 
ATOM     26  CG  GLU X   5      17.651  66.524  32.579  0.00  0.00    +0.000 C 
ATOM     27  CD  GLU X   5      16.260  66.324  32.009  0.00  0.00    +0.000 C 
ATOM     28  OE2 GLU X   5      15.309  66.953  32.517  0.00  0.00    +0.000 OA
ATOM     29  OE1 GLU X   5      16.114  65.531  31.055  0.00  0.00    +0.000 OA
ATOM     30  H   GLY X   1      27.402  67.584  29.224  0.00  0.00    +0.000 HD
ATOM     31  H   GLY X   1      25.801  67.628  29.681  0.00  0.00    +0.000 HD
ATOM     32  H   GLY X   1      26.520  66.174  29.305  0.00  0.00    +0.000 HD
ATOM     33  H   ALA X   2      24.745  67.780  31.784  0.00  0.00    +0.000 HD
ATOM     34  H   VAL X   3      21.728  64.343  32.422  0.00  0.00    +0.000 HD
ATOM     35  H   GLY X   4      21.021  65.318  30.344  0.00  0.00    +0.000 HD
ATOM     36  H   GLU X   5      19.796  66.314  30.897  0.00  0.00    +0.000 HD
TER 
REMARK  Name = /data/user_data/xianyang/t3-aimnet-affinity-balanced/L4/O00767/pocket.pdb
REMARK                            x       y       z     vdW  Elec       q    Type
REMARK                         _______ _______ _______ _____ _____    ______ ____
ATOM      1  N   HIS Y   1      17.364  73.938  28.560  0.00  0.00    +0.000 N 
ATOM      2  CA  HIS Y   1      16.615  74.493  29.681  0.00  0.00    +0.000 C 
ATOM      3  C   HIS Y   1      15.694  75.634  29.265  0.00  0.00    +0.000 C 
ATOM      4  O   HIS Y   1      14.673  75.874  29.908  0.00  0.00    +0.000 OA
ATOM      5  CB  HIS Y   1      17.574  74.968  30.778  0.00  0.00    +0.000 C 
ATOM      6  CG  HIS Y   1      17.094  74.693  32.168  0.00  0.00    +0.000 C 
ATOM      7  ND1 HIS Y   1      16.223  73.661  32.461  0.00  0.00    +0.000 NA
ATOM      8  CD2 HIS Y   1      17.352  75.307  33.344  0.00  0.00    +0.000 C 
ATOM      9  CE1 HIS Y   1      15.972  73.656  33.761  0.00  0.00    +0.000 C 
ATOM     10  NE2 HIS Y   1      16.646  74.649  34.317  0.00  0.00    +0.000 NA
ATOM     11  H   HIS Y   1      16.714  73.626  27.838  0.00  0.00    +0.000 HD
ATOM     12  H   HIS Y   1      17.920  73.146  28.882  0.00  0.00    +0.000 HD
ATOM     13  H   HIS Y   1      17.981  74.654  28.176  0.00  0.00    +0.000 HD
TER 
REMARK  Name = /data/user_data/xianyang/t3-aimnet-affinity-balanced/L4/O00767/pocket.pdb
REMARK                            x       y       z     vdW  Elec       q    Type
REMARK                         _______ _______ _______ _____ _____    ______ ____
ATOM      1  N   HIS Z   1      12.759  73.685  28.276  0.00  0.00    +0.000 N 
ATOM      2  CA  HIS Z   1      12.075  72.980  29.352  0.00  0.00    +0.000 C 
ATOM      3  C   HIS Z   1      11.330  73.908  30.305  0.00  0.00    +0.000 C 
ATOM      4  O   HIS Z   1      10.256  73.563  30.786  0.00  0.00    +0.000 OA
ATOM      5  CB  HIS Z   1      13.052  72.125  30.152  0.00  0.00    +0.000 C 
ATOM      6  CG  HIS Z   1      12.394  71.368  31.264  0.00  0.00    +0.000 C 
ATOM      7  ND1 HIS Z   1      11.371  70.475  31.044  0.00  0.00    +0.000 NA
ATOM      8  CD2 HIS Z   1      12.593  71.398  32.600  0.00  0.00    +0.000 C 
ATOM      9  CE1 HIS Z   1      10.975  69.969  32.198  0.00  0.00    +0.000 C 
ATOM     10  NE2 HIS Z   1      11.700  70.517  33.161  0.00  0.00    +0.000 NA
ATOM     11  H   HIS Z   1      13.235  73.011  27.677  0.00  0.00    +0.000 HD
ATOM     12  H   HIS Z   1      13.442  74.330  28.673  0.00  0.00    +0.000 HD
ATOM     13  H   HIS Z   1      12.078  74.208  27.725  0.00  0.00    +0.000 HD
TER 
