REMARK  Name = /data/user_data/xianyang/t3-aimnet-affinity-balanced/L1/Q06124/pocket.pdb
REMARK                            x       y       z     vdW  Elec       q    Type
REMARK                         _______ _______ _______ _____ _____    ______ ____
ATOM      1  N   PRO A   1      32.134  28.395   8.854  0.00  0.00    +0.000 N 
ATOM      2  CA  PRO A   1      30.834  28.237   8.188  0.00  0.00    +0.000 C 
ATOM      3  C   PRO A   1      30.562  26.836   7.657  0.00  0.00    +0.000 C 
ATOM      4  O   PRO A   1      29.498  26.627   7.067  0.00  0.00    +0.000 OA
ATOM      5  CB  PRO A   1      30.936  29.233   7.027  0.00  0.00    +0.000 C 
ATOM      6  CG  PRO A   1      32.386  29.165   6.665  0.00  0.00    +0.000 C 
ATOM      7  CD  PRO A   1      33.114  29.071   7.983  0.00  0.00    +0.000 C 
ATOM      8  N   THR A   2      31.486  25.895   7.871  0.00  0.00    +0.000 N 
ATOM      9  CA  THR A   2      31.425  24.572   7.247  0.00  0.00    +0.000 C 
ATOM     10  C   THR A   2      30.062  23.905   7.415  0.00  0.00    +0.000 C 
ATOM     11  O   THR A   2      29.495  23.379   6.450  0.00  0.00    +0.000 OA
ATOM     12  CB  THR A   2      32.524  23.681   7.835  0.00  0.00    +0.000 C 
ATOM     13  OG1 THR A   2      33.808  24.228   7.510  0.00  0.00    +0.000 OA
ATOM     14  CG2 THR A   2      32.428  22.264   7.296  0.00  0.00    +0.000 C 
ATOM     15  N   SER A   3      29.520  23.913   8.632  0.00  0.00    +0.000 N 
ATOM     16  CA  SER A   3      28.288  23.183   8.914  0.00  0.00    +0.000 C 
ATOM     17  C   SER A   3      27.033  24.031   8.744  0.00  0.00    +0.000 C 
ATOM     18  O   SER A   3      25.955  23.620   9.187  0.00  0.00    +0.000 OA
ATOM     19  CB  SER A   3      28.336  22.584  10.326  0.00  0.00    +0.000 C 
ATOM     20  OG  SER A   3      28.421  23.597  11.310  0.00  0.00    +0.000 OA
ATOM     21  N   GLU A   4      27.130  25.187   8.090  0.00  0.00    +0.000 N 
ATOM     22  CA  GLU A   4      25.944  25.976   7.818  0.00  0.00    +0.000 C 
ATOM     23  C   GLU A   4      25.211  25.419   6.612  0.00  0.00    +0.000 C 
ATOM     24  O   GLU A   4      25.821  24.969   5.642  0.00  0.00    +0.000 OA
ATOM     25  CB  GLU A   4      26.309  27.447   7.568  0.00  0.00    +0.000 C 
ATOM     26  CG  GLU A   4      27.014  28.108   8.743  0.00  0.00    +0.000 C 
ATOM     27  CD  GLU A   4      26.080  28.436   9.904  0.00  0.00    +0.000 C 
ATOM     28  OE1 GLU A   4      24.845  28.295   9.768  0.00  0.00    +0.000 OA
ATOM     29  OE2 GLU A   4      26.594  28.845  10.962  0.00  0.00    +0.000 OA
ATOM     30  N   ARG A   5      23.888  25.498   6.661  0.00  0.00    +0.000 N 
ATOM     31  CA  ARG A   5      23.071  24.899   5.619  0.00  0.00    +0.000 C 
ATOM     32  C   ARG A   5      23.248  25.610   4.276  0.00  0.00    +0.000 C 
ATOM     33  O   ARG A   5      23.064  24.989   3.224  0.00  0.00    +0.000 OA
ATOM     34  CB  ARG A   5      21.618  24.927   6.083  0.00  0.00    +0.000 C 
ATOM     35  CG  ARG A   5      20.641  24.187   5.236  0.00  0.00    +0.000 C 
ATOM     36  CD  ARG A   5      19.302  24.115   5.964  0.00  0.00    +0.000 C 
ATOM     37  NE  ARG A   5      18.329  23.343   5.203  0.00  0.00    +0.000 N 
ATOM     38  CZ  ARG A   5      17.109  23.059   5.638  0.00  0.00    +0.000 C 
ATOM     39  NH2 ARG A   5      16.674  23.500   6.808  0.00  0.00    +0.000 N 
ATOM     40  NH1 ARG A   5      16.310  22.308   4.885  0.00  0.00    +0.000 N 
ATOM     41  N   TRP A   6      23.608  26.902   4.292  0.00  0.00    +0.000 N 
ATOM     42  CA  TRP A   6      23.754  27.709   3.087  0.00  0.00    +0.000 C 
ATOM     43  C   TRP A   6      25.178  27.743   2.529  0.00  0.00    +0.000 C 
ATOM     44  O   TRP A   6      25.395  28.361   1.476  0.00  0.00    +0.000 OA
ATOM     45  CB  TRP A   6      23.287  29.158   3.350  0.00  0.00    +0.000 C 
ATOM     46  CG  TRP A   6      23.660  29.715   4.707  0.00  0.00    +0.000 C 
ATOM     47  CD1 TRP A   6      22.840  29.824   5.797  0.00  0.00    +0.000 C 
ATOM     48  CD2 TRP A   6      24.945  30.208   5.126  0.00  0.00    +0.000 A 
ATOM     49  NE1 TRP A   6      23.523  30.380   6.856  0.00  0.00    +0.000 NA
ATOM     50  CE2 TRP A   6      24.816  30.620   6.477  0.00  0.00    +0.000 A 
ATOM     51  CE3 TRP A   6      26.181  30.365   4.488  0.00  0.00    +0.000 A 
ATOM     52  CZ2 TRP A   6      25.885  31.156   7.210  0.00  0.00    +0.000 A 
ATOM     53  CZ3 TRP A   6      27.247  30.920   5.218  0.00  0.00    +0.000 A 
ATOM     54  CH2 TRP A   6      27.088  31.299   6.567  0.00  0.00    +0.000 A 
ATOM     55  N   PHE A   7      26.152  27.129   3.200  0.00  0.00    +0.000 N 
ATOM     56  CA  PHE A   7      27.552  27.263   2.810  0.00  0.00    +0.000 C 
ATOM     57  C   PHE A   7      27.988  26.099   1.932  0.00  0.00    +0.000 C 
ATOM     58  O   PHE A   7      27.872  24.932   2.326  0.00  0.00    +0.000 OA
ATOM     59  CB  PHE A   7      28.469  27.355   4.026  0.00  0.00    +0.000 C 
ATOM     60  CG  PHE A   7      29.913  27.596   3.676  0.00  0.00    +0.000 A 
ATOM     61  CD1 PHE A   7      30.319  28.819   3.150  0.00  0.00    +0.000 A 
ATOM     62  CD2 PHE A   7      30.867  26.604   3.869  0.00  0.00    +0.000 A 
ATOM     63  CE1 PHE A   7      31.650  29.047   2.818  0.00  0.00    +0.000 A 
ATOM     64  CE2 PHE A   7      32.202  26.826   3.538  0.00  0.00    +0.000 A 
ATOM     65  CZ  PHE A   7      32.593  28.050   3.018  0.00  0.00    +0.000 A 
ATOM     66  N   HIS A   8      28.540  26.416   0.763  0.00  0.00    +0.000 N 
ATOM     67  CA  HIS A   8      28.942  25.377  -0.176  0.00  0.00    +0.000 C 
ATOM     68  C   HIS A   8      30.427  25.399  -0.522  0.00  0.00    +0.000 C 
ATOM     69  O   HIS A   8      30.837  24.723  -1.474  0.00  0.00    +0.000 OA
ATOM     70  CB  HIS A   8      28.081  25.467  -1.432  0.00  0.00    +0.000 C 
ATOM     71  CG  HIS A   8      26.654  25.079  -1.196  0.00  0.00    +0.000 C 
ATOM     72  ND1 HIS A   8      26.144  23.852  -1.562  0.00  0.00    +0.000 NA
ATOM     73  CD2 HIS A   8      25.636  25.746  -0.604  0.00  0.00    +0.000 C 
ATOM     74  CE1 HIS A   8      24.865  23.793  -1.237  0.00  0.00    +0.000 C 
ATOM     75  NE2 HIS A   8      24.535  24.923  -0.639  0.00  0.00    +0.000 NA
ATOM     76  N   GLY A   9      31.243  26.124   0.235  0.00  0.00    +0.000 N 
ATOM     77  CA  GLY A   9      32.688  25.989   0.105  0.00  0.00    +0.000 C 
ATOM     78  C   GLY A   9      33.169  26.299  -1.298  0.00  0.00    +0.000 C 
ATOM     79  O   GLY A   9      32.773  27.296  -1.912  0.00  0.00    +0.000 OA
ATOM     80  H   PRO A   1      32.007  28.949   9.701  0.00  0.00    +0.000 HD
ATOM     81  H   PRO A   1      32.493  27.466   9.076  0.00  0.00    +0.000 HD
ATOM     82  H   THR A   2      32.238  26.099   8.472  0.00  0.00    +0.000 HD
ATOM     83  H   THR A   2      33.914  24.254   6.546  0.00  0.00    +0.000 HD
ATOM     84  H   SER A   3      29.958  24.420   9.353  0.00  0.00    +0.000 HD
ATOM     85  H   SER A   3      29.233  24.110  11.176  0.00  0.00    +0.000 HD
ATOM     86  H   GLU A   4      28.011  25.508   7.790  0.00  0.00    +0.000 HD
ATOM     87  H   ARG A   5      23.455  25.967   7.411  0.00  0.00    +0.000 HD
ATOM     88  H   ARG A   5      18.593  23.013   4.314  0.00  0.00    +0.000 HD
ATOM     89  H   ARG A   5      15.764  23.277   7.111  0.00  0.00    +0.000 HD
ATOM     90  H   ARG A   5      17.260  24.051   7.375  0.00  0.00    +0.000 HD
ATOM     91  H   ARG A   5      16.625  21.975   4.013  0.00  0.00    +0.000 HD
ATOM     92  H   ARG A   5      15.404  22.085   5.199  0.00  0.00    +0.000 HD
ATOM     93  H   TRP A   6      23.783  27.327   5.163  0.00  0.00    +0.000 HD
ATOM     94  H   PHE A   7      25.922  26.571   3.978  0.00  0.00    +0.000 HD
ATOM     95  H   HIS A   8      28.678  27.363   0.530  0.00  0.00    +0.000 HD
ATOM     96  H   GLY A   9      30.869  26.757   0.889  0.00  0.00    +0.000 HD
TER 
REMARK  Name = /data/user_data/xianyang/t3-aimnet-affinity-balanced/L1/Q06124/pocket.pdb
REMARK                            x       y       z     vdW  Elec       q    Type
REMARK                         _______ _______ _______ _____ _____    ______ ____
ATOM      1  N   PRO B   1      17.982  28.528   2.559  0.00  0.00    +0.000 N 
ATOM      2  CA  PRO B   1      19.150  28.001   1.856  0.00  0.00    +0.000 C 
ATOM      3  C   PRO B   1      18.699  27.125   0.699  0.00  0.00    +0.000 C 
ATOM      4  O   PRO B   1      17.623  26.518   0.732  0.00  0.00    +0.000 OA
ATOM      5  CB  PRO B   1      19.886  27.193   2.930  0.00  0.00    +0.000 C 
ATOM      6  CG  PRO B   1      19.366  27.719   4.241  0.00  0.00    +0.000 C 
ATOM      7  CD  PRO B   1      17.943  28.107   3.973  0.00  0.00    +0.000 C 
ATOM      8  N   LEU B   2      19.518  27.106  -0.350  0.00  0.00    +0.000 N 
ATOM      9  CA  LEU B   2      19.233  26.284  -1.520  0.00  0.00    +0.000 C 
ATOM     10  C   LEU B   2      19.141  24.809  -1.130  0.00  0.00    +0.000 C 
ATOM     11  O   LEU B   2      20.042  24.277  -0.479  0.00  0.00    +0.000 OA
ATOM     12  CB  LEU B   2      20.335  26.473  -2.555  0.00  0.00    +0.000 C 
ATOM     13  CG  LEU B   2      20.127  25.689  -3.847  0.00  0.00    +0.000 C 
ATOM     14  CD2 LEU B   2      18.897  26.201  -4.549  0.00  0.00    +0.000 C 
ATOM     15  CD1 LEU B   2      21.347  25.755  -4.746  0.00  0.00    +0.000 C 
ATOM     16  N   ASN B   3      18.066  24.140  -1.551  0.00  0.00    +0.000 N 
ATOM     17  CA  ASN B   3      17.934  22.702  -1.300  0.00  0.00    +0.000 C 
ATOM     18  C   ASN B   3      18.835  21.952  -2.272  0.00  0.00    +0.000 C 
ATOM     19  O   ASN B   3      18.531  21.871  -3.465  0.00  0.00    +0.000 OA
ATOM     20  CB  ASN B   3      16.481  22.259  -1.453  0.00  0.00    +0.000 C 
ATOM     21  CG  ASN B   3      16.259  20.802  -1.043  0.00  0.00    +0.000 C 
ATOM     22  OD1 ASN B   3      17.178  19.988  -1.067  0.00  0.00    +0.000 OA
ATOM     23  ND2 ASN B   3      15.032  20.478  -0.667  0.00  0.00    +0.000 N 
ATOM     24  N   THR B   4      19.945  21.401  -1.777  0.00  0.00    +0.000 N 
ATOM     25  CA  THR B   4      20.800  20.546  -2.595  0.00  0.00    +0.000 C 
ATOM     26  C   THR B   4      20.780  19.087  -2.158  0.00  0.00    +0.000 C 
ATOM     27  O   THR B   4      21.387  18.250  -2.830  0.00  0.00    +0.000 OA
ATOM     28  CB  THR B   4      22.249  21.059  -2.603  0.00  0.00    +0.000 C 
ATOM     29  OG1 THR B   4      22.797  21.055  -1.275  0.00  0.00    +0.000 OA
ATOM     30  CG2 THR B   4      22.302  22.491  -3.173  0.00  0.00    +0.000 C 
ATOM     31  N   THR B   5      20.099  18.756  -1.064  0.00  0.00    +0.000 N 
ATOM     32  CA  THR B   5      20.059  17.377  -0.582  0.00  0.00    +0.000 C 
ATOM     33  C   THR B   5      18.881  16.579  -1.136  0.00  0.00    +0.000 C 
ATOM     34  O   THR B   5      18.920  15.340  -1.118  0.00  0.00    +0.000 OA
ATOM     35  CB  THR B   5      20.011  17.376   0.945  0.00  0.00    +0.000 C 
ATOM     36  OG1 THR B   5      18.918  18.189   1.365  0.00  0.00    +0.000 OA
ATOM     37  CG2 THR B   5      21.297  17.925   1.524  0.00  0.00    +0.000 C 
ATOM     38  N   ARG B   6      17.848  17.252  -1.643  0.00  0.00    +0.000 N 
ATOM     39  CA  ARG B   6      16.719  16.584  -2.284  0.00  0.00    +0.000 C 
ATOM     40  C   ARG B   6      17.135  16.157  -3.684  0.00  0.00    +0.000 C 
ATOM     41  O   ARG B   6      17.422  17.005  -4.535  0.00  0.00    +0.000 OA
ATOM     42  CB  ARG B   6      15.510  17.513  -2.342  0.00  0.00    +0.000 C 
ATOM     43  CG  ARG B   6      14.331  16.951  -3.122  0.00  0.00    +0.000 C 
ATOM     44  CD  ARG B   6      13.205  17.978  -3.218  0.00  0.00    +0.000 C 
ATOM     45  NE  ARG B   6      13.627  19.156  -3.971  0.00  0.00    +0.000 N 
ATOM     46  CZ  ARG B   6      13.021  20.336  -3.928  0.00  0.00    +0.000 C 
ATOM     47  NH2 ARG B   6      11.945  20.535  -3.183  0.00  0.00    +0.000 N 
ATOM     48  NH1 ARG B   6      13.514  21.344  -4.644  0.00  0.00    +0.000 N 
ATOM     49  H   PRO B   1      17.139  28.192   2.093  0.00  0.00    +0.000 HD
ATOM     50  H   PRO B   1      18.038  29.546   2.538  0.00  0.00    +0.000 HD
ATOM     51  H   LEU B   2      20.333  27.658  -0.336  0.00  0.00    +0.000 HD
ATOM     52  H   ASN B   3      17.354  24.617  -2.035  0.00  0.00    +0.000 HD
ATOM     53  H   ASN B   3      14.322  21.160  -0.662  0.00  0.00    +0.000 HD
ATOM     54  H   ASN B   3      14.829  19.555  -0.393  0.00  0.00    +0.000 HD
ATOM     55  H   THR B   4      20.193  21.575  -0.840  0.00  0.00    +0.000 HD
ATOM     56  H   THR B   4      22.276  21.645  -0.708  0.00  0.00    +0.000 HD
ATOM     57  H   THR B   5      19.612  19.454  -0.569  0.00  0.00    +0.000 HD
ATOM     58  H   THR B   5      19.046  19.095   1.042  0.00  0.00    +0.000 HD
ATOM     59  H   ARG B   6      17.846  18.235  -1.583  0.00  0.00    +0.000 HD
ATOM     60  H   ARG B   6      14.417  19.069  -4.552  0.00  0.00    +0.000 HD
ATOM     61  H   ARG B   6      11.513  21.420  -3.168  0.00  0.00    +0.000 HD
ATOM     62  H   ARG B   6      11.576  19.798  -2.644  0.00  0.00    +0.000 HD
ATOM     63  H   ARG B   6      14.314  21.207  -5.201  0.00  0.00    +0.000 HD
ATOM     64  H   ARG B   6      13.079  22.227  -4.616  0.00  0.00    +0.000 HD
TER 
REMARK  Name = /data/user_data/xianyang/t3-aimnet-affinity-balanced/L1/Q06124/pocket.pdb
REMARK                            x       y       z     vdW  Elec       q    Type
REMARK                         _______ _______ _______ _____ _____    ______ ____
ATOM      1  N   GLY C   1      32.336  13.771   2.376  0.00  0.00    +0.000 N 
ATOM      2  CA  GLY C   1      31.136  14.575   2.209  0.00  0.00    +0.000 C 
ATOM      3  C   GLY C   1      29.980  14.123   3.080  0.00  0.00    +0.000 C 
ATOM      4  O   GLY C   1      29.100  14.927   3.419  0.00  0.00    +0.000 OA
ATOM      5  H   GLY C   1      33.071  14.126   1.765  0.00  0.00    +0.000 HD
ATOM      6  H   GLY C   1      32.132  12.801   2.134  0.00  0.00    +0.000 HD
ATOM      7  H   GLY C   1      32.647  13.821   3.346  0.00  0.00    +0.000 HD
TER 
REMARK  Name = /data/user_data/xianyang/t3-aimnet-affinity-balanced/L1/Q06124/pocket.pdb
REMARK                            x       y       z     vdW  Elec       q    Type
REMARK                         _______ _______ _______ _____ _____    ______ ____
ATOM      1  N   GLU D   1      30.454  16.113   6.477  0.00  0.00    +0.000 N 
ATOM      2  CA  GLU D   1      30.045  17.509   6.397  0.00  0.00    +0.000 C 
ATOM      3  C   GLU D   1      28.529  17.642   6.343  0.00  0.00    +0.000 C 
ATOM      4  O   GLU D   1      27.956  18.524   6.988  0.00  0.00    +0.000 OA
ATOM      5  CB  GLU D   1      30.697  18.181   5.183  0.00  0.00    +0.000 C 
ATOM      6  CG  GLU D   1      32.208  18.342   5.317  0.00  0.00    +0.000 C 
ATOM      7  CD  GLU D   1      32.826  19.117   4.166  0.00  0.00    +0.000 C 
ATOM      8  OE1 GLU D   1      32.163  19.263   3.115  0.00  0.00    +0.000 OA
ATOM      9  OE2 GLU D   1      33.979  19.574   4.317  0.00  0.00    +0.000 OA
ATOM     10  N   GLU D   2      27.854  16.764   5.601  0.00  0.00    +0.000 N 
ATOM     11  CA  GLU D   2      26.400  16.865   5.522  0.00  0.00    +0.000 C 
ATOM     12  C   GLU D   2      25.748  16.470   6.846  0.00  0.00    +0.000 C 
ATOM     13  O   GLU D   2      24.790  17.117   7.281  0.00  0.00    +0.000 OA
ATOM     14  CB  GLU D   2      25.865  16.018   4.360  0.00  0.00    +0.000 C 
ATOM     15  CG  GLU D   2      24.352  16.048   4.223  0.00  0.00    +0.000 C 
ATOM     16  CD  GLU D   2      23.848  15.268   3.000  0.00  0.00    +0.000 C 
ATOM     17  OE1 GLU D   2      24.272  15.579   1.852  0.00  0.00    +0.000 OA
ATOM     18  OE2 GLU D   2      23.031  14.341   3.189  0.00  0.00    +0.000 OA
ATOM     19  N   PHE D   3      26.270  15.431   7.518  0.00  0.00    +0.000 N 
ATOM     20  CA  PHE D   3      25.720  15.036   8.817  0.00  0.00    +0.000 C 
ATOM     21  C   PHE D   3      25.887  16.144   9.850  0.00  0.00    +0.000 C 
ATOM     22  O   PHE D   3      24.945  16.471  10.577  0.00  0.00    +0.000 OA
ATOM     23  CB  PHE D   3      26.374  13.747   9.323  0.00  0.00    +0.000 C 
ATOM     24  CG  PHE D   3      25.810  13.262  10.645  0.00  0.00    +0.000 A 
ATOM     25  CD1 PHE D   3      24.485  12.877  10.747  0.00  0.00    +0.000 A 
ATOM     26  CD2 PHE D   3      26.604  13.192  11.781  0.00  0.00    +0.000 A 
ATOM     27  CE1 PHE D   3      23.956  12.431  11.961  0.00  0.00    +0.000 A 
ATOM     28  CE2 PHE D   3      26.076  12.742  13.006  0.00  0.00    +0.000 A 
ATOM     29  CZ  PHE D   3      24.754  12.368  13.091  0.00  0.00    +0.000 A 
ATOM     30  H   GLU D   1      31.472  16.058   6.512  0.00  0.00    +0.000 HD
ATOM     31  H   GLU D   1      30.114  15.612   5.656  0.00  0.00    +0.000 HD
ATOM     32  H   GLU D   1      30.062  15.692   7.319  0.00  0.00    +0.000 HD
ATOM     33  H   GLU D   2      28.331  16.055   5.112  0.00  0.00    +0.000 HD
ATOM     34  H   PHE D   3      27.027  14.932   7.135  0.00  0.00    +0.000 HD
TER 
REMARK  Name = /data/user_data/xianyang/t3-aimnet-affinity-balanced/L1/Q06124/pocket.pdb
REMARK                            x       y       z     vdW  Elec       q    Type
REMARK                         _______ _______ _______ _____ _____    ______ ____
ATOM      1  N   THR E   1      26.159  19.277   9.277  0.00  0.00    +0.000 N 
ATOM      2  CA  THR E   1      25.233  20.350   8.922  0.00  0.00    +0.000 C 
ATOM      3  C   THR E   1      23.841  20.057   9.468  0.00  0.00    +0.000 C 
ATOM      4  O   THR E   1      23.165  20.950   9.991  0.00  0.00    +0.000 OA
ATOM      5  CB  THR E   1      25.203  20.523   7.400  0.00  0.00    +0.000 C 
ATOM      6  OG1 THR E   1      26.500  20.916   6.932  0.00  0.00    +0.000 OA
ATOM      7  CG2 THR E   1      24.182  21.550   6.978  0.00  0.00    +0.000 C 
ATOM      8  N   LEU E   2      23.405  18.800   9.375  0.00  0.00    +0.000 N 
ATOM      9  CA  LEU E   2      22.140  18.403   9.988  0.00  0.00    +0.000 C 
ATOM     10  C   LEU E   2      22.186  18.548  11.504  0.00  0.00    +0.000 C 
ATOM     11  O   LEU E   2      21.213  19.006  12.119  0.00  0.00    +0.000 OA
ATOM     12  CB  LEU E   2      21.813  16.959   9.607  0.00  0.00    +0.000 C 
ATOM     13  CG  LEU E   2      20.587  16.334  10.257  0.00  0.00    +0.000 C 
ATOM     14  CD2 LEU E   2      19.365  17.156   9.926  0.00  0.00    +0.000 C 
ATOM     15  CD1 LEU E   2      20.423  14.882   9.766  0.00  0.00    +0.000 C 
ATOM     16  N   GLN E   3      23.289  18.132  12.128  0.00  0.00    +0.000 N 
ATOM     17  CA  GLN E   3      23.401  18.260  13.582  0.00  0.00    +0.000 C 
ATOM     18  C   GLN E   3      23.323  19.719  14.023  0.00  0.00    +0.000 C 
ATOM     19  O   GLN E   3      22.786  20.019  15.099  0.00  0.00    +0.000 OA
ATOM     20  CB  GLN E   3      24.708  17.639  14.066  0.00  0.00    +0.000 C 
ATOM     21  CG  GLN E   3      24.841  16.155  13.772  0.00  0.00    +0.000 C 
ATOM     22  CD  GLN E   3      23.836  15.333  14.533  0.00  0.00    +0.000 C 
ATOM     23  OE1 GLN E   3      22.671  15.250  14.152  0.00  0.00    +0.000 OA
ATOM     24  NE2 GLN E   3      24.282  14.713  15.619  0.00  0.00    +0.000 N 
ATOM     25  H   THR E   1      27.084  19.489   8.904  0.00  0.00    +0.000 HD
ATOM     26  H   THR E   1      25.827  18.397   8.882  0.00  0.00    +0.000 HD
ATOM     27  H   THR E   1      26.212  19.196  10.292  0.00  0.00    +0.000 HD
ATOM     28  H   THR E   1      26.742  21.768   7.328  0.00  0.00    +0.000 HD
ATOM     29  H   LEU E   2      23.941  18.133   8.888  0.00  0.00    +0.000 HD
ATOM     30  H   GLN E   3      24.028  17.739  11.610  0.00  0.00    +0.000 HD
ATOM     31  H   GLN E   3      25.224  14.808  15.888  0.00  0.00    +0.000 HD
ATOM     32  H   GLN E   3      23.670  14.159  16.156  0.00  0.00    +0.000 HD
TER 
REMARK  Name = /data/user_data/xianyang/t3-aimnet-affinity-balanced/L1/Q06124/pocket.pdb
REMARK                            x       y       z     vdW  Elec       q    Type
REMARK                         _______ _______ _______ _____ _____    ______ ____
ATOM      1  N   GLN F   1      21.442  21.943  13.152  0.00  0.00    +0.000 N 
ATOM      2  CA  GLN F   1      20.057  22.395  13.232  0.00  0.00    +0.000 C 
ATOM      3  C   GLN F   1      19.285  21.746  14.376  0.00  0.00    +0.000 C 
ATOM      4  O   GLN F   1      18.085  22.006  14.530  0.00  0.00    +0.000 OA
ATOM      5  CB  GLN F   1      19.351  22.125  11.904  0.00  0.00    +0.000 C 
ATOM      6  CG  GLN F   1      19.961  22.907  10.734  0.00  0.00    +0.000 C 
ATOM      7  CD  GLN F   1      19.906  24.400  10.971  0.00  0.00    +0.000 C 
ATOM      8  OE1 GLN F   1      18.893  24.925  11.423  0.00  0.00    +0.000 OA
ATOM      9  NE2 GLN F   1      21.006  25.091  10.690  0.00  0.00    +0.000 N 
ATOM     10  H   GLN F   1      21.907  22.408  12.372  0.00  0.00    +0.000 HD
ATOM     11  H   GLN F   1      21.462  20.934  13.007  0.00  0.00    +0.000 HD
ATOM     12  H   GLN F   1      21.925  22.171  14.021  0.00  0.00    +0.000 HD
ATOM     13  H   GLN F   1      21.798  24.631  10.328  0.00  0.00    +0.000 HD
ATOM     14  H   GLN F   1      21.029  26.063  10.843  0.00  0.00    +0.000 HD
TER 
REMARK  Name = /data/user_data/xianyang/t3-aimnet-affinity-balanced/L1/Q06124/pocket.pdb
REMARK                            x       y       z     vdW  Elec       q    Type
REMARK                         _______ _______ _______ _____ _____    ______ ____
ATOM      1  N   ASP G   1      14.976  13.003   0.183  0.00  0.00    +0.000 N 
ATOM      2  CA  ASP G   1      15.770  14.010   0.891  0.00  0.00    +0.000 C 
ATOM      3  C   ASP G   1      16.048  13.440   2.281  0.00  0.00    +0.000 C 
ATOM      4  O   ASP G   1      15.206  13.562   3.174  0.00  0.00    +0.000 OA
ATOM      5  CB  ASP G   1      15.029  15.344   0.945  0.00  0.00    +0.000 C 
ATOM      6  CG  ASP G   1      15.897  16.495   1.430  0.00  0.00    +0.000 C 
ATOM      7  OD2 ASP G   1      16.905  16.260   2.128  0.00  0.00    +0.000 OA
ATOM      8  OD1 ASP G   1      15.542  17.655   1.141  0.00  0.00    +0.000 OA
ATOM      9  H   ASP G   1      14.762  13.337  -0.757  0.00  0.00    +0.000 HD
ATOM     10  H   ASP G   1      14.107  12.837   0.690  0.00  0.00    +0.000 HD
ATOM     11  H   ASP G   1      15.506  12.133   0.122  0.00  0.00    +0.000 HD
TER 
REMARK  Name = /data/user_data/xianyang/t3-aimnet-affinity-balanced/L1/Q06124/pocket.pdb
REMARK                            x       y       z     vdW  Elec       q    Type
REMARK                         _______ _______ _______ _____ _____    ______ ____
ATOM      1  N   PRO H   1      18.292  14.125   4.931  0.00  0.00    +0.000 N 
ATOM      2  CA  PRO H   1      18.279  14.957   6.149  0.00  0.00    +0.000 C 
ATOM      3  C   PRO H   1      16.931  15.608   6.403  0.00  0.00    +0.000 C 
ATOM      4  O   PRO H   1      16.562  15.805   7.567  0.00  0.00    +0.000 OA
ATOM      5  CB  PRO H   1      19.375  15.998   5.889  0.00  0.00    +0.000 C 
ATOM      6  CG  PRO H   1      19.528  16.044   4.388  0.00  0.00    +0.000 C 
ATOM      7  CD  PRO H   1      19.211  14.655   3.902  0.00  0.00    +0.000 C 
ATOM      8  N   LYS H   2      16.166  15.943   5.357  0.00  0.00    +0.000 N 
ATOM      9  CA  LYS H   2      14.834  16.486   5.603  0.00  0.00    +0.000 C 
ATOM     10  C   LYS H   2      13.952  15.468   6.309  0.00  0.00    +0.000 C 
ATOM     11  O   LYS H   2      13.243  15.805   7.265  0.00  0.00    +0.000 OA
ATOM     12  CB  LYS H   2      14.186  16.940   4.295  0.00  0.00    +0.000 C 
ATOM     13  CG  LYS H   2      12.789  17.508   4.479  0.00  0.00    +0.000 C 
ATOM     14  CD  LYS H   2      12.168  17.853   3.128  0.00  0.00    +0.000 C 
ATOM     15  CE  LYS H   2      10.789  18.485   3.286  0.00  0.00    +0.000 C 
ATOM     16  NZ  LYS H   2      10.174  18.837   1.969  0.00  0.00    +0.000 N 
ATOM     17  N   THR H   3      13.988  14.211   5.851  0.00  0.00    +0.000 N 
ATOM     18  CA  THR H   3      13.237  13.157   6.521  0.00  0.00    +0.000 C 
ATOM     19  C   THR H   3      13.704  12.980   7.961  0.00  0.00    +0.000 C 
ATOM     20  O   THR H   3      12.882  12.871   8.872  0.00  0.00    +0.000 OA
ATOM     21  CB  THR H   3      13.369  11.852   5.741  0.00  0.00    +0.000 C 
ATOM     22  OG1 THR H   3      12.843  12.055   4.424  0.00  0.00    +0.000 OA
ATOM     23  CG2 THR H   3      12.586  10.725   6.416  0.00  0.00    +0.000 C 
ATOM     24  H   PRO H   1      18.588  13.181   5.181  0.00  0.00    +0.000 HD
ATOM     25  H   PRO H   1      17.350  14.128   4.540  0.00  0.00    +0.000 HD
ATOM     26  H   LYS H   2      16.496  15.825   4.437  0.00  0.00    +0.000 HD
ATOM     27  H   LYS H   2      10.053  17.990   1.413  0.00  0.00    +0.000 HD
ATOM     28  H   LYS H   2      10.784  19.486   1.471  0.00  0.00    +0.000 HD
ATOM     29  H   LYS H   2       9.266  19.275   2.124  0.00  0.00    +0.000 HD
ATOM     30  H   THR H   3      14.526  13.997   5.055  0.00  0.00    +0.000 HD
ATOM     31  H   THR H   3      11.908  12.305   4.484  0.00  0.00    +0.000 HD
TER 
REMARK  Name = /data/user_data/xianyang/t3-aimnet-affinity-balanced/L1/Q06124/pocket.pdb
REMARK                            x       y       z     vdW  Elec       q    Type
REMARK                         _______ _______ _______ _____ _____    ______ ____
ATOM      1  N   GLN I   1      15.273  15.240   9.942  0.00  0.00    +0.000 N 
ATOM      2  CA  GLN I   1      14.866  16.392  10.738  0.00  0.00    +0.000 C 
ATOM      3  C   GLN I   1      13.390  16.308  11.107  0.00  0.00    +0.000 C 
ATOM      4  O   GLN I   1      12.999  16.627  12.236  0.00  0.00    +0.000 OA
ATOM      5  CB  GLN I   1      15.161  17.693   9.986  0.00  0.00    +0.000 C 
ATOM      6  CG  GLN I   1      14.925  18.951  10.811  0.00  0.00    +0.000 C 
ATOM      7  CD  GLN I   1      16.004  19.176  11.873  0.00  0.00    +0.000 C 
ATOM      8  OE1 GLN I   1      16.778  18.275  12.184  0.00  0.00    +0.000 OA
ATOM      9  NE2 GLN I   1      16.066  20.394  12.418  0.00  0.00    +0.000 N 
ATOM     10  H   GLN I   1      16.263  15.320   9.709  0.00  0.00    +0.000 HD
ATOM     11  H   GLN I   1      14.723  15.208   9.084  0.00  0.00    +0.000 HD
ATOM     12  H   GLN I   1      15.118  14.385  10.477  0.00  0.00    +0.000 HD
ATOM     13  H   GLN I   1      15.427  21.090  12.142  0.00  0.00    +0.000 HD
ATOM     14  H   GLN I   1      16.751  20.596  13.096  0.00  0.00    +0.000 HD
TER 
REMARK  Name = /data/user_data/xianyang/t3-aimnet-affinity-balanced/L1/Q06124/pocket.pdb
REMARK                            x       y       z     vdW  Elec       q    Type
REMARK                         _______ _______ _______ _____ _____    ______ ____
ATOM      1  N   TYR J   1      23.777   7.534   9.769  0.00  0.00    +0.000 N 
ATOM      2  CA  TYR J   1      23.442   8.411   8.648  0.00  0.00    +0.000 C 
ATOM      3  C   TYR J   1      23.881   7.794   7.322  0.00  0.00    +0.000 C 
ATOM      4  O   TYR J   1      23.083   7.668   6.388  0.00  0.00    +0.000 OA
ATOM      5  CB  TYR J   1      24.096   9.776   8.863  0.00  0.00    +0.000 C 
ATOM      6  CG  TYR J   1      23.571  10.862   7.956  0.00  0.00    +0.000 A 
ATOM      7  CD2 TYR J   1      22.327  11.432   8.178  0.00  0.00    +0.000 A 
ATOM      8  CD1 TYR J   1      24.329  11.330   6.887  0.00  0.00    +0.000 A 
ATOM      9  CE2 TYR J   1      21.848  12.455   7.354  0.00  0.00    +0.000 A 
ATOM     10  CE1 TYR J   1      23.861  12.335   6.061  0.00  0.00    +0.000 A 
ATOM     11  CZ  TYR J   1      22.622  12.890   6.303  0.00  0.00    +0.000 A 
ATOM     12  OH  TYR J   1      22.147  13.891   5.473  0.00  0.00    +0.000 OA
ATOM     13  H   TYR J   1      23.342   6.622   9.629  0.00  0.00    +0.000 HD
ATOM     14  H   TYR J   1      23.433   7.945  10.637  0.00  0.00    +0.000 HD
ATOM     15  H   TYR J   1      24.790   7.423   9.823  0.00  0.00    +0.000 HD
ATOM     16  H   TYR J   1      22.669  14.192   4.755  0.00  0.00    +0.000 HD
TER 
