REMARK  Name = /home/xianyang/aimnet2_score_pipelines/work/L1234-fixed-receptor-eint-20260921/L4/Q99705/prepared.pdb
REMARK                            x       y       z     vdW  Elec       q    Type
REMARK                         _______ _______ _______ _____ _____    ______ ____
ATOM      1  CH3 ACE A   1     128.299 157.450 109.954  0.00  0.00    +0.000 C 
ATOM      2  C   ACE A   1     127.990 155.999 110.295  0.00  0.00    +0.000 C 
ATOM      3  O   ACE A   1     128.205 155.573 111.436  0.00  0.00    +0.000 OA
ATOM      4  N   VAL A   2     127.476 155.232 109.331  0.00  0.00    +0.000 N 
ATOM      5  H   VAL A   2     127.247 155.642 108.439  0.00  0.00    +0.000 HD
ATOM      6  CA  VAL A   2     127.194 153.818 109.569  0.00  0.00    +0.000 C 
ATOM      7  C   VAL A   2     128.483 153.064 109.874  0.00  0.00    +0.000 C 
ATOM      8  O   VAL A   2     128.555 152.278 110.826  0.00  0.00    +0.000 OA
ATOM      9  CB  VAL A   2     126.454 153.207 108.364  0.00  0.00    +0.000 C 
ATOM     10  CG1 VAL A   2     126.289 151.707 108.547  0.00  0.00    +0.000 C 
ATOM     11  CG2 VAL A   2     125.101 153.875 108.180  0.00  0.00    +0.000 C 
ATOM     12  N   PHE A   3     129.523 153.295 109.069  0.00  0.00    +0.000 N 
ATOM     13  H   PHE A   3     129.412 153.886 108.262  0.00  0.00    +0.000 HD
ATOM     14  CA  PHE A   3     130.798 152.623 109.299  0.00  0.00    +0.000 C 
ATOM     15  C   PHE A   3     131.477 153.124 110.566  0.00  0.00    +0.000 C 
ATOM     16  O   PHE A   3     132.142 152.346 111.259  0.00  0.00    +0.000 OA
ATOM     17  CB  PHE A   3     131.714 152.812 108.090  0.00  0.00    +0.000 C 
ATOM     18  CG  PHE A   3     131.158 152.245 106.816  0.00  0.00    +0.000 A 
ATOM     19  CD1 PHE A   3     130.429 151.068 106.827  0.00  0.00    +0.000 A 
ATOM     20  CD2 PHE A   3     131.356 152.893 105.609  0.00  0.00    +0.000 A 
ATOM     21  CE1 PHE A   3     129.913 150.544 105.657  0.00  0.00    +0.000 A 
ATOM     22  CE2 PHE A   3     130.842 152.376 104.435  0.00  0.00    +0.000 A 
ATOM     23  CZ  PHE A   3     130.119 151.199 104.460  0.00  0.00    +0.000 A 
ATOM     24  N   GLY A   4     131.331 154.413 110.879  0.00  0.00    +0.000 N 
ATOM     25  H   GLY A   4     130.733 154.996 110.320  0.00  0.00    +0.000 HD
ATOM     26  CA  GLY A   4     131.892 154.930 112.117  0.00  0.00    +0.000 C 
ATOM     27  C   GLY A   4     131.276 154.291 113.346  0.00  0.00    +0.000 C 
ATOM     28  O   GLY A   4     131.973 153.997 114.320  0.00  0.00    +0.000 OA
ATOM     29  N   NME A   5     129.958 154.074 113.319  0.00  0.00    +0.000 N 
ATOM     30  H   NME A   5     129.410 154.355 112.514  0.00  0.00    +0.000 HD
ATOM     31  C   NME A   5     129.297 153.375 114.417  0.00  0.00    +0.000 C 
TER 
REMARK  Name = /home/xianyang/aimnet2_score_pipelines/work/L1234-fixed-receptor-eint-20260921/L4/Q99705/prepared.pdb
REMARK                            x       y       z     vdW  Elec       q    Type
REMARK                         _______ _______ _______ _____ _____    ______ ____
ATOM      1  CH3 ACE B   1     140.468 139.506 118.128  0.00  0.00    +0.000 C 
ATOM      2  C   ACE B   1     141.407 140.518 117.484  0.00  0.00    +0.000 C 
ATOM      3  O   ACE B   1     141.005 141.651 117.196  0.00  0.00    +0.000 OA
ATOM      4  N   VAL B   2     142.664 140.129 117.256  0.00  0.00    +0.000 N 
ATOM      5  H   VAL B   2     142.959 139.216 117.563  0.00  0.00    +0.000 HD
ATOM      6  CA  VAL B   2     143.630 141.042 116.652  0.00  0.00    +0.000 C 
ATOM      7  C   VAL B   2     143.239 141.365 115.215  0.00  0.00    +0.000 C 
ATOM      8  O   VAL B   2     143.415 142.498 114.750  0.00  0.00    +0.000 OA
ATOM      9  CB  VAL B   2     145.048 140.446 116.735  0.00  0.00    +0.000 C 
ATOM     10  CG1 VAL B   2     146.067 141.396 116.121  0.00  0.00    +0.000 C 
ATOM     11  CG2 VAL B   2     145.408 140.132 118.178  0.00  0.00    +0.000 C 
ATOM     12  N   VAL B   3     142.709 140.378 114.487  0.00  0.00    +0.000 N 
ATOM     13  H   VAL B   3     142.568 139.472 114.903  0.00  0.00    +0.000 HD
ATOM     14  CA  VAL B   3     142.336 140.595 113.091  0.00  0.00    +0.000 C 
ATOM     15  C   VAL B   3     141.289 141.696 112.986  0.00  0.00    +0.000 C 
ATOM     16  O   VAL B   3     141.379 142.586 112.132  0.00  0.00    +0.000 OA
ATOM     17  CB  VAL B   3     141.840 139.283 112.457  0.00  0.00    +0.000 C 
ATOM     18  CG1 VAL B   3     141.616 139.470 110.966  0.00  0.00    +0.000 C 
ATOM     19  CG2 VAL B   3     142.831 138.167 112.716  0.00  0.00    +0.000 C 
ATOM     20  N   ASP B   4     140.274 141.648 113.852  0.00  0.00    +0.000 N 
ATOM     21  H   ASP B   4     140.157 140.866 114.474  0.00  0.00    +0.000 HD
ATOM     22  CA  ASP B   4     139.319 142.749 113.924  0.00  0.00    +0.000 C 
ATOM     23  C   ASP B   4     140.002 144.038 114.359  0.00  0.00    +0.000 C 
ATOM     24  O   ASP B   4     139.703 145.117 113.835  0.00  0.00    +0.000 OA
ATOM     25  CB  ASP B   4     138.177 142.395 114.877  0.00  0.00    +0.000 C 
ATOM     26  CG  ASP B   4     137.223 141.375 114.289  0.00  0.00    +0.000 C 
ATOM     27  OD1 ASP B   4     137.369 141.041 113.095  0.00  0.00    +0.000 OA
ATOM     28  OD2 ASP B   4     136.325 140.909 115.022  0.00  0.00    +0.000 OA
ATOM     29  N   LEU B   5     140.922 143.945 115.322  0.00  0.00    +0.000 N 
ATOM     30  H   LEU B   5     141.067 143.053 115.781  0.00  0.00    +0.000 HD
ATOM     31  CA  LEU B   5     141.627 145.131 115.800  0.00  0.00    +0.000 C 
ATOM     32  C   LEU B   5     142.435 145.780 114.683  0.00  0.00    +0.000 C 
ATOM     33  O   LEU B   5     142.340 146.991 114.455  0.00  0.00    +0.000 OA
ATOM     34  CB  LEU B   5     142.529 144.761 116.977  0.00  0.00    +0.000 C 
ATOM     35  CG  LEU B   5     143.301 145.911 117.626  0.00  0.00    +0.000 C 
ATOM     36  CD1 LEU B   5     142.342 146.958 118.170  0.00  0.00    +0.000 C 
ATOM     37  CD2 LEU B   5     144.215 145.391 118.724  0.00  0.00    +0.000 C 
ATOM     38  N   LEU B   6     143.240 144.984 113.974  0.00  0.00    +0.000 N 
ATOM     39  H   LEU B   6     143.215 143.995 114.136  0.00  0.00    +0.000 HD
ATOM     40  CA  LEU B   6     144.077 145.534 112.911  0.00  0.00    +0.000 C 
ATOM     41  C   LEU B   6     143.234 146.083 111.768  0.00  0.00    +0.000 C 
ATOM     42  O   LEU B   6     143.555 147.136 111.204  0.00  0.00    +0.000 OA
ATOM     43  CB  LEU B   6     145.045 144.470 112.397  0.00  0.00    +0.000 C 
ATOM     44  CG  LEU B   6     146.169 144.065 113.351  0.00  0.00    +0.000 C 
ATOM     45  CD1 LEU B   6     147.078 143.037 112.699  0.00  0.00    +0.000 C 
ATOM     46  CD2 LEU B   6     146.962 145.286 113.789  0.00  0.00    +0.000 C 
ATOM     47  N   PHE B   7     142.161 145.378 111.403  0.00  0.00    +0.000 N 
ATOM     48  H   PHE B   7     141.930 144.510 111.877  0.00  0.00    +0.000 HD
ATOM     49  CA  PHE B   7     141.306 145.849 110.320  0.00  0.00    +0.000 C 
ATOM     50  C   PHE B   7     140.636 147.169 110.677  0.00  0.00    +0.000 C 
ATOM     51  O   PHE B   7     140.568 148.084 109.848  0.00  0.00    +0.000 OA
ATOM     52  CB  PHE B   7     140.254 144.795 109.983  0.00  0.00    +0.000 C 
ATOM     53  CG  PHE B   7     139.114 145.324 109.166  0.00  0.00    +0.000 A 
ATOM     54  CD1 PHE B   7     139.306 145.691 107.845  0.00  0.00    +0.000 A 
ATOM     55  CD2 PHE B   7     137.852 145.457 109.718  0.00  0.00    +0.000 A 
ATOM     56  CE1 PHE B   7     138.260 146.181 107.091  0.00  0.00    +0.000 A 
ATOM     57  CE2 PHE B   7     136.802 145.944 108.968  0.00  0.00    +0.000 A 
ATOM     58  CZ  PHE B   7     137.007 146.307 107.653  0.00  0.00    +0.000 A 
ATOM     59  N   LEU B   8     140.128 147.285 111.905  0.00  0.00    +0.000 N 
ATOM     60  H   LEU B   8     140.173 146.499 112.549  0.00  0.00    +0.000 HD
ATOM     61  CA  LEU B   8     139.435 148.501 112.310  0.00  0.00    +0.000 C 
ATOM     62  C   LEU B   8     140.381 149.680 112.492  0.00  0.00    +0.000 C 
ATOM     63  O   LEU B   8     139.930 150.829 112.439  0.00  0.00    +0.000 OA
ATOM     64  CB  LEU B   8     138.647 148.254 113.595  0.00  0.00    +0.000 C 
ATOM     65  CG  LEU B   8     137.442 147.327 113.437  0.00  0.00    +0.000 C 
ATOM     66  CD1 LEU B   8     136.710 147.172 114.756  0.00  0.00    +0.000 C 
ATOM     67  CD2 LEU B   8     136.506 147.840 112.353  0.00  0.00    +0.000 C 
ATOM     68  N   LEU B   9     141.672 149.429 112.722  0.00  0.00    +0.000 N 
ATOM     69  H   LEU B   9     141.980 148.474 112.868  0.00  0.00    +0.000 HD
ATOM     70  CA  LEU B   9     142.630 150.529 112.785  0.00  0.00    +0.000 C 
ATOM     71  C   LEU B   9     142.716 151.257 111.450  0.00  0.00    +0.000 C 
ATOM     72  O   LEU B   9     142.767 152.492 111.409  0.00  0.00    +0.000 OA
ATOM     73  CB  LEU B   9     144.006 150.014 113.208  0.00  0.00    +0.000 C 
ATOM     74  CG  LEU B   9     144.169 149.644 114.683  0.00  0.00    +0.000 C 
ATOM     75  CD1 LEU B   9     145.606 149.247 114.980  0.00  0.00    +0.000 C 
ATOM     76  CD2 LEU B   9     143.730 150.792 115.580  0.00  0.00    +0.000 C 
ATOM     77  N   GLY B  10     142.737 150.511 110.350  0.00  0.00    +0.000 N 
ATOM     78  H   GLY B  10     142.696 149.503 110.445  0.00  0.00    +0.000 HD
ATOM     79  CA  GLY B  10     142.703 151.099 109.029  0.00  0.00    +0.000 C 
ATOM     80  C   GLY B  10     141.333 151.502 108.543  0.00  0.00    +0.000 C 
ATOM     81  O   GLY B  10     141.214 152.087 107.463  0.00  0.00    +0.000 OA
ATOM     82  N   MET B  11     140.287 151.193 109.310  0.00  0.00    +0.000 N 
ATOM     83  H   MET B  11     140.428 150.674 110.165  0.00  0.00    +0.000 HD
ATOM     84  CA  MET B  11     138.930 151.556 108.905  0.00  0.00    +0.000 C 
ATOM     85  C   MET B  11     138.730 153.059 108.751  0.00  0.00    +0.000 C 
ATOM     86  O   MET B  11     138.214 153.481 107.702  0.00  0.00    +0.000 OA
ATOM     87  CB  MET B  11     137.923 150.961 109.895  0.00  0.00    +0.000 C 
ATOM     88  CG  MET B  11     136.516 151.522 109.763  0.00  0.00    +0.000 C 
ATOM     89  SD  MET B  11     135.659 150.956 108.282  0.00  0.00    +0.000 S 
ATOM     90  CE  MET B  11     135.324 149.253 108.723  0.00  0.00    +0.000 C 
ATOM     91  N   PRO B  12     139.092 153.914 109.719  0.00  0.00    +0.000 N 
ATOM     92  CA  PRO B  12     138.830 155.353 109.536  0.00  0.00    +0.000 C 
ATOM     93  C   PRO B  12     139.540 155.951 108.336  0.00  0.00    +0.000 C 
ATOM     94  O   PRO B  12     139.007 156.879 107.714  0.00  0.00    +0.000 OA
ATOM     95  CB  PRO B  12     139.323 155.970 110.853  0.00  0.00    +0.000 C 
ATOM     96  CG  PRO B  12     140.311 154.997 111.377  0.00  0.00    +0.000 C 
ATOM     97  CD  PRO B  12     139.767 153.655 111.004  0.00  0.00    +0.000 C 
ATOM     98  N   PHE B  13     140.731 155.453 107.995  0.00  0.00    +0.000 N 
ATOM     99  H   PHE B  13     141.140 154.705 108.535  0.00  0.00    +0.000 HD
ATOM    100  CA  PHE B  13     141.420 155.945 106.806  0.00  0.00    +0.000 C 
ATOM    101  C   PHE B  13     140.620 155.642 105.546  0.00  0.00    +0.000 C 
ATOM    102  O   PHE B  13     140.507 156.490 104.653  0.00  0.00    +0.000 OA
ATOM    103  CB  PHE B  13     142.816 155.329 106.714  0.00  0.00    +0.000 C 
ATOM    104  CG  PHE B  13     143.666 155.563 107.930  0.00  0.00    +0.000 A 
ATOM    105  CD1 PHE B  13     144.392 156.734 108.070  0.00  0.00    +0.000 A 
ATOM    106  CD2 PHE B  13     143.745 154.608 108.930  0.00  0.00    +0.000 A 
ATOM    107  CE1 PHE B  13     145.177 156.951 109.188  0.00  0.00    +0.000 A 
ATOM    108  CE2 PHE B  13     144.528 154.818 110.049  0.00  0.00    +0.000 A 
ATOM    109  CZ  PHE B  13     145.245 155.991 110.178  0.00  0.00    +0.000 A 
ATOM    110  N   MET B  14     140.057 154.435 105.457  0.00  0.00    +0.000 N 
ATOM    111  H   MET B  14     140.180 153.761 106.206  0.00  0.00    +0.000 HD
ATOM    112  CA  MET B  14     139.217 154.091 104.316  0.00  0.00    +0.000 C 
ATOM    113  C   MET B  14     137.910 154.872 104.328  0.00  0.00    +0.000 C 
ATOM    114  O   MET B  14     137.346 155.151 103.264  0.00  0.00    +0.000 OA
ATOM    115  CB  MET B  14     138.943 152.588 104.301  0.00  0.00    +0.000 C 
ATOM    116  CG  MET B  14     140.196 151.731 104.313  0.00  0.00    +0.000 C 
ATOM    117  SD  MET B  14     139.842 149.964 104.282  0.00  0.00    +0.000 S 
ATOM    118  CE  MET B  14     139.063 149.802 102.678  0.00  0.00    +0.000 C 
ATOM    119  N   ILE B  15     137.411 155.223 105.516  0.00  0.00    +0.000 N 
ATOM    120  H   ILE B  15     137.849 154.869 106.361  0.00  0.00    +0.000 HD
ATOM    121  CA  ILE B  15     136.179 156.002 105.609  0.00  0.00    +0.000 C 
ATOM    122  C   ILE B  15     136.373 157.378 104.987  0.00  0.00    +0.000 C 
ATOM    123  O   ILE B  15     135.502 157.878 104.263  0.00  0.00    +0.000 OA
ATOM    124  CB  ILE B  15     135.719 156.104 107.076  0.00  0.00    +0.000 C 
ATOM    125  CG1 ILE B  15     135.290 154.733 107.601  0.00  0.00    +0.000 C 
ATOM    126  CG2 ILE B  15     134.583 157.105 107.214  0.00  0.00    +0.000 C 
ATOM    127  CD1 ILE B  15     134.815 154.754 109.038  0.00  0.00    +0.000 C 
ATOM    128  N   HIS B  16     137.518 158.011 105.257  0.00  0.00    +0.000 NA
ATOM    129  H   HIS B  16     138.188 157.582 105.887  0.00  0.00    +0.000 HD
ATOM    130  CA  HIS B  16     137.772 159.344 104.722  0.00  0.00    +0.000 C 
ATOM    131  C   HIS B  16     137.796 159.341 103.200  0.00  0.00    +0.000 C 
ATOM    132  O   HIS B  16     137.385 160.323 102.571  0.00  0.00    +0.000 OA
ATOM    133  CB  HIS B  16     139.089 159.890 105.275  0.00  0.00    +0.000 C 
ATOM    134  CG  HIS B  16     139.291 161.351 105.022  0.00  0.00    +0.000 A 
ATOM    135  ND1 HIS B  16     139.771 161.840 103.826  0.00  0.00    +0.000 N 
ATOM    136  HD1 HIS B  16     139.950 161.294 102.998  0.00  0.00    +0.000 HD
ATOM    137  CD2 HIS B  16     139.079 162.430 105.812  0.00  0.00    +0.000 A 
ATOM    138  CE1 HIS B  16     139.845 163.158 103.889  0.00  0.00    +0.000 A 
ATOM    139  NE2 HIS B  16     139.431 163.541 105.084  0.00  0.00    +0.000 NA
ATOM    140  N   GLN B  17     138.281 158.255 102.591  0.00  0.00    +0.000 N 
ATOM    141  H   GLN B  17     138.621 157.481 103.147  0.00  0.00    +0.000 HD
ATOM    142  CA  GLN B  17     138.238 158.142 101.137  0.00  0.00    +0.000 C 
ATOM    143  C   GLN B  17     136.803 158.156 100.630  0.00  0.00    +0.000 C 
ATOM    144  O   GLN B  17     136.496 158.809  99.625  0.00  0.00    +0.000 OA
ATOM    145  CB  GLN B  17     138.954 156.867 100.689  0.00  0.00    +0.000 C 
ATOM    146  CG  GLN B  17     138.933 156.637  99.187  0.00  0.00    +0.000 C 
ATOM    147  CD  GLN B  17     139.555 155.312  98.792  0.00  0.00    +0.000 C 
ATOM    148  OE1 GLN B  17     139.680 155.000  97.608  0.00  0.00    +0.000 OA
ATOM    149  NE2 GLN B  17     139.947 154.523  99.785  0.00  0.00    +0.000 N 
ATOM    150 HE21 GLN B  17     140.349 153.644  99.505  0.00  0.00    +0.000 HD
ATOM    151 HE22 GLN B  17     139.804 154.795 100.738  0.00  0.00    +0.000 HD
ATOM    152  N   LEU B  18     135.908 157.436 101.311  0.00  0.00    +0.000 N 
ATOM    153  H   LEU B  18     136.195 156.911 102.127  0.00  0.00    +0.000 HD
ATOM    154  CA  LEU B  18     134.494 157.487 100.958  0.00  0.00    +0.000 C 
ATOM    155  C   LEU B  18     133.923 158.881 101.181  0.00  0.00    +0.000 C 
ATOM    156  O   LEU B  18     133.087 159.352 100.400  0.00  0.00    +0.000 OA
ATOM    157  CB  LEU B  18     133.715 156.449 101.765  0.00  0.00    +0.000 C 
ATOM    158  CG  LEU B  18     132.204 156.395 101.536  0.00  0.00    +0.000 C 
ATOM    159  CD1 LEU B  18     131.892 156.147 100.070  0.00  0.00    +0.000 C 
ATOM    160  CD2 LEU B  18     131.574 155.325 102.411  0.00  0.00    +0.000 C 
ATOM    161  N   MET B  19     134.359 159.554 102.249  0.00  0.00    +0.000 N 
ATOM    162  H   MET B  19     134.966 159.088 102.913  0.00  0.00    +0.000 HD
ATOM    163  CA  MET B  19     133.937 160.932 102.478  0.00  0.00    +0.000 C 
ATOM    164  C   MET B  19     134.417 161.847 101.358  0.00  0.00    +0.000 C 
ATOM    165  O   MET B  19     133.680 162.731 100.908  0.00  0.00    +0.000 OA
ATOM    166  CB  MET B  19     134.455 161.421 103.831  0.00  0.00    +0.000 C 
ATOM    167  CG  MET B  19     133.983 160.629 105.039  0.00  0.00    +0.000 C 
ATOM    168  SD  MET B  19     133.592 159.213 106.098  0.00  0.00    +0.000 S 
ATOM    169  CE  MET B  19     135.090 158.197 105.944  0.00  0.00    +0.000 C 
ATOM    170  N   NME B  20     135.651 161.649 100.896  0.00  0.00    +0.000 N 
ATOM    171  H   NME B  20     136.215 160.913 101.303  0.00  0.00    +0.000 HD
ATOM    172  C   NME B  20     136.197 162.457  99.822  0.00  0.00    +0.000 C 
TER 
REMARK  Name = /home/xianyang/aimnet2_score_pipelines/work/L1234-fixed-receptor-eint-20260921/L4/Q99705/prepared.pdb
REMARK                            x       y       z     vdW  Elec       q    Type
REMARK                         _______ _______ _______ _____ _____    ______ ____
ATOM      1  CH3 ACE C   1     146.048 144.877 101.599  0.00  0.00    +0.000 C 
ATOM      2  C   ACE C   1     145.580 144.360 102.952  0.00  0.00    +0.000 C 
ATOM      3  O   ACE C   1     145.139 143.211 103.066  0.00  0.00    +0.000 OA
ATOM      4  N   MET C   2     145.677 145.193 103.993  0.00  0.00    +0.000 N 
ATOM      5  H   MET C   2     146.079 146.107 103.864  0.00  0.00    +0.000 HD
ATOM      6  CA  MET C   2     145.237 144.775 105.320  0.00  0.00    +0.000 C 
ATOM      7  C   MET C   2     143.744 144.477 105.337  0.00  0.00    +0.000 C 
ATOM      8  O   MET C   2     143.309 143.483 105.931  0.00  0.00    +0.000 OA
ATOM      9  CB  MET C   2     145.584 145.846 106.353  0.00  0.00    +0.000 C 
ATOM     10  CG  MET C   2     147.055 145.890 106.730  0.00  0.00    +0.000 C 
ATOM     11  SD  MET C   2     147.619 144.365 107.508  0.00  0.00    +0.000 S 
ATOM     12  CE  MET C   2     146.566 144.318 108.955  0.00  0.00    +0.000 C 
ATOM     13  N   ASP C   3     142.941 145.333 104.699  0.00  0.00    +0.000 N 
ATOM     14  H   ASP C   3     143.314 146.160 104.265  0.00  0.00    +0.000 HD
ATOM     15  CA  ASP C   3     141.512 145.061 104.594  0.00  0.00    +0.000 C 
ATOM     16  C   ASP C   3     141.256 143.770 103.830  0.00  0.00    +0.000 C 
ATOM     17  O   ASP C   3     140.425 142.950 104.239  0.00  0.00    +0.000 OA
ATOM     18  CB  ASP C   3     140.797 146.232 103.921  0.00  0.00    +0.000 C 
ATOM     19  CG  ASP C   3     139.461 145.831 103.324  0.00  0.00    +0.000 C 
ATOM     20  OD1 ASP C   3     138.558 145.434 104.088  0.00  0.00    +0.000 OA
ATOM     21  OD2 ASP C   3     139.317 145.910 102.086  0.00  0.00    +0.000 OA
ATOM     22  N   ALA C   4     141.959 143.571 102.713  0.00  0.00    +0.000 N 
ATOM     23  H   ALA C   4     142.572 144.293 102.376  0.00  0.00    +0.000 HD
ATOM     24  CA  ALA C   4     141.828 142.325 101.972  0.00  0.00    +0.000 C 
ATOM     25  C   ALA C   4     142.454 141.150 102.709  0.00  0.00    +0.000 C 
ATOM     26  O   ALA C   4     142.130 139.998 102.401  0.00  0.00    +0.000 OA
ATOM     27  CB  ALA C   4     142.459 142.466 100.586  0.00  0.00    +0.000 C 
ATOM     28  N   ASN C   5     143.347 141.412 103.665  0.00  0.00    +0.000 N 
ATOM     29  H   ASN C   5     143.651 142.365 103.819  0.00  0.00    +0.000 HD
ATOM     30  CA  ASN C   5     143.918 140.341 104.472  0.00  0.00    +0.000 C 
ATOM     31  C   ASN C   5     142.938 139.829 105.518  0.00  0.00    +0.000 C 
ATOM     32  O   ASN C   5     143.030 138.668 105.930  0.00  0.00    +0.000 OA
ATOM     33  CB  ASN C   5     145.200 140.821 105.154  0.00  0.00    +0.000 C 
ATOM     34  CG  ASN C   5     145.861 139.738 105.981  0.00  0.00    +0.000 C 
ATOM     35  OD1 ASN C   5     145.565 139.579 107.165  0.00  0.00    +0.000 OA
ATOM     36  ND2 ASN C   5     146.760 138.985 105.359  0.00  0.00    +0.000 N 
ATOM     37 HD21 ASN C   5     147.130 138.224 105.900  0.00  0.00    +0.000 HD
ATOM     38 HD22 ASN C   5     146.986 139.151 104.395  0.00  0.00    +0.000 HD
ATOM     39  N   SER C   6     142.004 140.677 105.957  0.00  0.00    +0.000 N 
ATOM     40  H   SER C   6     142.027 141.652 105.668  0.00  0.00    +0.000 HD
ATOM     41  CA  SER C   6     141.123 140.309 107.061  0.00  0.00    +0.000 C 
ATOM     42  C   SER C   6     140.239 139.123 106.702  0.00  0.00    +0.000 C 
ATOM     43  O   SER C   6     140.053 138.211 107.517  0.00  0.00    +0.000 OA
ATOM     44  CB  SER C   6     140.272 141.510 107.466  0.00  0.00    +0.000 C 
ATOM     45  OG  SER C   6     141.089 142.619 107.795  0.00  0.00    +0.000 OA
ATOM     46  HG  SER C   6     141.441 142.496 108.681  0.00  0.00    +0.000 HD
ATOM     47  N   GLN C   7     139.677 139.118 105.490  0.00  0.00    +0.000 N 
ATOM     48  H   GLN C   7     139.819 139.910 104.877  0.00  0.00    +0.000 HD
ATOM     49  CA  GLN C   7     138.823 138.007 105.082  0.00  0.00    +0.000 C 
ATOM     50  C   GLN C   7     139.593 136.695 105.057  0.00  0.00    +0.000 C 
ATOM     51  O   GLN C   7     139.080 135.656 105.489  0.00  0.00    +0.000 OA
ATOM     52  CB  GLN C   7     138.204 138.292 103.714  0.00  0.00    +0.000 C 
ATOM     53  CG  GLN C   7     139.182 138.783 102.666  0.00  0.00    +0.000 C 
ATOM     54  CD  GLN C   7     138.513 139.066 101.336  0.00  0.00    +0.000 C 
ATOM     55  OE1 GLN C   7     137.370 138.672 101.108  0.00  0.00    +0.000 OA
ATOM     56  NE2 GLN C   7     139.224 139.755 100.451  0.00  0.00    +0.000 N 
ATOM     57 HE21 GLN C   7     140.176 139.995 100.667  0.00  0.00    +0.000 HD
ATOM     58 HE22 GLN C   7     138.759 140.068  99.614  0.00  0.00    +0.000 HD
ATOM     59  N   PHE C   8     140.827 136.719 104.553  0.00  0.00    +0.000 N 
ATOM     60  H   PHE C   8     141.233 137.589 104.245  0.00  0.00    +0.000 HD
ATOM     61  CA  PHE C   8     141.623 135.498 104.513  0.00  0.00    +0.000 C 
ATOM     62  C   PHE C   8     142.101 135.097 105.902  0.00  0.00    +0.000 C 
ATOM     63  O   PHE C   8     142.135 133.906 106.232  0.00  0.00    +0.000 OA
ATOM     64  CB  PHE C   8     142.804 135.677 103.561  0.00  0.00    +0.000 C 
ATOM     65  CG  PHE C   8     142.404 135.757 102.117  0.00  0.00    +0.000 A 
ATOM     66  CD1 PHE C   8     142.062 136.970 101.545  0.00  0.00    +0.000 A 
ATOM     67  CD2 PHE C   8     142.363 134.617 101.334  0.00  0.00    +0.000 A 
ATOM     68  CE1 PHE C   8     141.692 137.045 100.217  0.00  0.00    +0.000 A 
ATOM     69  CE2 PHE C   8     141.994 134.685 100.005  0.00  0.00    +0.000 A 
ATOM     70  CZ  PHE C   8     141.658 135.901  99.447  0.00  0.00    +0.000 A 
ATOM     71  N   THR C   9     142.464 136.073 106.737  0.00  0.00    +0.000 N 
ATOM     72  H   THR C   9     142.552 137.027 106.407  0.00  0.00    +0.000 HD
ATOM     73  CA  THR C   9     142.977 135.749 108.064  0.00  0.00    +0.000 C 
ATOM     74  C   THR C   9     141.870 135.248 108.985  0.00  0.00    +0.000 C 
ATOM     75  O   THR C   9     142.060 134.266 109.711  0.00  0.00    +0.000 OA
ATOM     76  CB  THR C   9     143.670 136.967 108.673  0.00  0.00    +0.000 C 
ATOM     77  OG1 THR C   9     144.573 137.530 107.714  0.00  0.00    +0.000 OA
ATOM     78  HG1 THR C   9     144.731 138.491 107.799  0.00  0.00    +0.000 HD
ATOM     79  CG2 THR C   9     144.456 136.562 109.909  0.00  0.00    +0.000 C 
ATOM     80  N   SER C  10     140.711 135.911 108.975  0.00  0.00    +0.000 N 
ATOM     81  H   SER C  10     140.597 136.741 108.402  0.00  0.00    +0.000 HD
ATOM     82  CA  SER C  10     139.628 135.523 109.875  0.00  0.00    +0.000 C 
ATOM     83  C   SER C  10     139.115 134.126 109.551  0.00  0.00    +0.000 C 
ATOM     84  O   SER C  10     138.925 133.297 110.448  0.00  0.00    +0.000 OA
ATOM     85  CB  SER C  10     138.492 136.542 109.803  0.00  0.00    +0.000 C 
ATOM     86  OG  SER C  10     138.899 137.792 110.327  0.00  0.00    +0.000 OA
ATOM     87  HG  SER C  10     138.273 138.079 110.998  0.00  0.00    +0.000 HD
ATOM     88  N   THR C  11     138.877 133.849 108.267  0.00  0.00    +0.000 N 
ATOM     89  H   THR C  11     139.112 134.523 107.553  0.00  0.00    +0.000 HD
ATOM     90  CA  THR C  11     138.355 132.543 107.880  0.00  0.00    +0.000 C 
ATOM     91  C   THR C  11     139.350 131.431 108.186  0.00  0.00    +0.000 C 
ATOM     92  O   THR C  11     138.961 130.355 108.654  0.00  0.00    +0.000 OA
ATOM     93  CB  THR C  11     137.984 132.543 106.399  0.00  0.00    +0.000 C 
ATOM     94  OG1 THR C  11     139.092 133.022 105.627  0.00  0.00    +0.000 OA
ATOM     95  HG1 THR C  11     139.037 133.994 105.573  0.00  0.00    +0.000 HD
ATOM     96  CG2 THR C  11     136.784 133.439 106.166  0.00  0.00    +0.000 C 
ATOM     97  N   NME C  12     140.638 131.667 107.924  0.00  0.00    +0.000 N 
ATOM     98  H   NME C  12     140.917 132.541 107.492  0.00  0.00    +0.000 HD
ATOM     99  C   NME C  12     141.646 130.661 108.245  0.00  0.00    +0.000 C 
TER 
REMARK  Name = /home/xianyang/aimnet2_score_pipelines/work/L1234-fixed-receptor-eint-20260921/L4/Q99705/prepared.pdb
REMARK                            x       y       z     vdW  Elec       q    Type
REMARK                         _______ _______ _______ _____ _____    ______ ____
ATOM      1  CH3 ACE D   1     136.532 134.567  91.867  0.00  0.00    +0.000 C 
ATOM      2  C   ACE D   1     137.560 134.003  92.841  0.00  0.00    +0.000 C 
ATOM      3  O   ACE D   1     137.222 133.185  93.704  0.00  0.00    +0.000 OA
ATOM      4  N   TYR D   2     138.821 134.423  92.712  0.00  0.00    +0.000 N 
ATOM      5  H   TYR D   2     139.065 135.039  91.953  0.00  0.00    +0.000 HD
ATOM      6  CA  TYR D   2     139.875 133.867  93.555  0.00  0.00    +0.000 C 
ATOM      7  C   TYR D   2     139.656 134.213  95.023  0.00  0.00    +0.000 C 
ATOM      8  O   TYR D   2     139.959 133.405  95.908  0.00  0.00    +0.000 OA
ATOM      9  CB  TYR D   2     141.241 134.358  93.070  0.00  0.00    +0.000 C 
ATOM     10  CG  TYR D   2     142.076 135.060  94.117  0.00  0.00    +0.000 A 
ATOM     11  CD1 TYR D   2     142.931 134.347  94.946  0.00  0.00    +0.000 A 
ATOM     12  CD2 TYR D   2     142.024 136.440  94.261  0.00  0.00    +0.000 A 
ATOM     13  CE1 TYR D   2     143.698 134.987  95.899  0.00  0.00    +0.000 A 
ATOM     14  CE2 TYR D   2     142.788 137.088  95.211  0.00  0.00    +0.000 A 
ATOM     15  CZ  TYR D   2     143.623 136.357  96.026  0.00  0.00    +0.000 A 
ATOM     16  OH  TYR D   2     144.385 137.002  96.972  0.00  0.00    +0.000 OA
ATOM     17  HH  TYR D   2     144.877 136.386  97.516  0.00  0.00    +0.000 HD
ATOM     18  N   GLN D   3     139.134 135.409  95.304  0.00  0.00    +0.000 N 
ATOM     19  H   GLN D   3     138.951 136.057  94.559  0.00  0.00    +0.000 HD
ATOM     20  CA  GLN D   3     138.828 135.765  96.686  0.00  0.00    +0.000 C 
ATOM     21  C   GLN D   3     137.667 134.935  97.219  0.00  0.00    +0.000 C 
ATOM     22  O   GLN D   3     137.736 134.393  98.328  0.00  0.00    +0.000 OA
ATOM     23  CB  GLN D   3     138.514 137.257  96.793  0.00  0.00    +0.000 C 
ATOM     24  CG  GLN D   3     139.691 138.166  96.491  0.00  0.00    +0.000 C 
ATOM     25  CD  GLN D   3     139.396 139.619  96.808  0.00  0.00    +0.000 C 
ATOM     26  OE1 GLN D   3     140.205 140.503  96.530  0.00  0.00    +0.000 OA
ATOM     27  NE2 GLN D   3     138.233 139.871  97.397  0.00  0.00    +0.000 N 
ATOM     28 HE21 GLN D   3     137.993 140.842  97.486  0.00  0.00    +0.000 HD
ATOM     29 HE22 GLN D   3     137.596 139.130  97.638  0.00  0.00    +0.000 HD
ATOM     30  N   PHE D   4     136.590 134.821  96.439  0.00  0.00    +0.000 N 
ATOM     31  H   PHE D   4     136.599 135.202  95.510  0.00  0.00    +0.000 HD
ATOM     32  CA  PHE D   4     135.442 134.034  96.877  0.00  0.00    +0.000 C 
ATOM     33  C   PHE D   4     135.804 132.565  97.045  0.00  0.00    +0.000 C 
ATOM     34  O   PHE D   4     135.365 131.915  98.002  0.00  0.00    +0.000 OA
ATOM     35  CB  PHE D   4     134.290 134.189  95.884  0.00  0.00    +0.000 C 
ATOM     36  CG  PHE D   4     133.216 133.151  96.038  0.00  0.00    +0.000 A 
ATOM     37  CD1 PHE D   4     132.300 133.232  97.073  0.00  0.00    +0.000 A 
ATOM     38  CD2 PHE D   4     133.120 132.096  95.145  0.00  0.00    +0.000 A 
ATOM     39  CE1 PHE D   4     131.311 132.279  97.217  0.00  0.00    +0.000 A 
ATOM     40  CE2 PHE D   4     132.134 131.140  95.283  0.00  0.00    +0.000 A 
ATOM     41  CZ  PHE D   4     131.228 131.232  96.321  0.00  0.00    +0.000 A 
ATOM     42  N   NME D   5     136.590 132.018  96.116  0.00  0.00    +0.000 N 
ATOM     43  H   NME D   5     136.931 132.580  95.349  0.00  0.00    +0.000 HD
ATOM     44  C   NME D   5     136.925 130.599  96.171  0.00  0.00    +0.000 C 
TER 
REMARK  Name = /home/xianyang/aimnet2_score_pipelines/work/L1234-fixed-receptor-eint-20260921/L4/Q99705/prepared.pdb
REMARK                            x       y       z     vdW  Elec       q    Type
REMARK                         _______ _______ _______ _____ _____    ______ ____
ATOM      1  CH3 ACE E   1     128.036 130.799 111.547  0.00  0.00    +0.000 C 
ATOM      2  C   ACE E   1     127.768 132.274 111.280  0.00  0.00    +0.000 C 
ATOM      3  O   ACE E   1     127.281 132.624 110.200  0.00  0.00    +0.000 OA
ATOM      4  N   VAL E   2     128.075 133.149 112.242  0.00  0.00    +0.000 N 
ATOM      5  H   VAL E   2     128.399 132.807 113.134  0.00  0.00    +0.000 HD
ATOM      6  CA  VAL E   2     127.819 134.575 112.056  0.00  0.00    +0.000 C 
ATOM      7  C   VAL E   2     128.618 135.113 110.876  0.00  0.00    +0.000 C 
ATOM      8  O   VAL E   2     128.091 135.856 110.038  0.00  0.00    +0.000 OA
ATOM      9  CB  VAL E   2     128.125 135.348 113.353  0.00  0.00    +0.000 C 
ATOM     10  CG1 VAL E   2     128.316 136.829 113.061  0.00  0.00    +0.000 C 
ATOM     11  CG2 VAL E   2     127.003 135.154 114.357  0.00  0.00    +0.000 C 
ATOM     12  N   PHE E   3     129.896 134.740 110.784  0.00  0.00    +0.000 N 
ATOM     13  H   PHE E   3     130.288 134.129 111.482  0.00  0.00    +0.000 HD
ATOM     14  CA  PHE E   3     130.747 135.281 109.730  0.00  0.00    +0.000 C 
ATOM     15  C   PHE E   3     130.261 134.861 108.348  0.00  0.00    +0.000 C 
ATOM     16  O   PHE E   3     130.202 135.683 107.427  0.00  0.00    +0.000 OA
ATOM     17  CB  PHE E   3     132.195 134.841 109.945  0.00  0.00    +0.000 C 
ATOM     18  CG  PHE E   3     133.182 135.575 109.088  0.00  0.00    +0.000 A 
ATOM     19  CD1 PHE E   3     133.470 135.135 107.807  0.00  0.00    +0.000 A 
ATOM     20  CD2 PHE E   3     133.818 136.710 109.561  0.00  0.00    +0.000 A 
ATOM     21  CE1 PHE E   3     134.372 135.813 107.016  0.00  0.00    +0.000 A 
ATOM     22  CE2 PHE E   3     134.724 137.390 108.774  0.00  0.00    +0.000 A 
ATOM     23  CZ  PHE E   3     135.002 136.940 107.500  0.00  0.00    +0.000 A 
ATOM     24  N   PHE E   4     129.914 133.585 108.180  0.00  0.00    +0.000 N 
ATOM     25  H   PHE E   4     129.940 132.949 108.959  0.00  0.00    +0.000 HD
ATOM     26  CA  PHE E   4     129.501 133.088 106.874  0.00  0.00    +0.000 C 
ATOM     27  C   PHE E   4     128.060 133.440 106.528  0.00  0.00    +0.000 C 
ATOM     28  O   PHE E   4     127.629 133.167 105.403  0.00  0.00    +0.000 OA
ATOM     29  CB  PHE E   4     129.694 131.572 106.803  0.00  0.00    +0.000 C 
ATOM     30  CG  PHE E   4     131.134 131.148 106.788  0.00  0.00    +0.000 A 
ATOM     31  CD1 PHE E   4     131.843 131.102 105.600  0.00  0.00    +0.000 A 
ATOM     32  CD2 PHE E   4     131.779 130.798 107.961  0.00  0.00    +0.000 A 
ATOM     33  CE1 PHE E   4     133.167 130.714 105.582  0.00  0.00    +0.000 A 
ATOM     34  CE2 PHE E   4     133.103 130.409 107.950  0.00  0.00    +0.000 A 
ATOM     35  CZ  PHE E   4     133.798 130.367 106.758  0.00  0.00    +0.000 A 
ATOM     36  N   VAL E   5     127.312 134.033 107.453  0.00  0.00    +0.000 N 
ATOM     37  H   VAL E   5     127.676 134.132 108.391  0.00  0.00    +0.000 HD
ATOM     38  CA  VAL E   5     125.965 134.511 107.176  0.00  0.00    +0.000 C 
ATOM     39  C   VAL E   5     125.954 136.000 106.850  0.00  0.00    +0.000 C 
ATOM     40  O   VAL E   5     125.274 136.426 105.916  0.00  0.00    +0.000 OA
ATOM     41  CB  VAL E   5     125.029 134.191 108.361  0.00  0.00    +0.000 C 
ATOM     42  CG1 VAL E   5     123.760 135.024 108.286  0.00  0.00    +0.000 C 
ATOM     43  CG2 VAL E   5     124.683 132.711 108.370  0.00  0.00    +0.000 C 
ATOM     44  N   CYS E   6     126.705 136.802 107.609  0.00  0.00    +0.000 N 
ATOM     45  H   CYS E   6     127.193 136.431 108.418  0.00  0.00    +0.000 HD
ATOM     46  CA  CYS E   6     126.746 138.238 107.354  0.00  0.00    +0.000 C 
ATOM     47  C   CYS E   6     127.320 138.538 105.975  0.00  0.00    +0.000 C 
ATOM     48  O   CYS E   6     126.819 139.416 105.263  0.00  0.00    +0.000 OA
ATOM     49  CB  CYS E   6     127.560 138.943 108.438  0.00  0.00    +0.000 C 
ATOM     50  SG  CYS E   6     126.846 138.839 110.094  0.00  0.00    +0.000 S 
ATOM     51  HG  CYS E   6     127.131 140.100 110.446  0.00  0.00    +0.000 HD
ATOM     52  N   TRP E   7     128.372 137.825 105.583  0.00  0.00    +0.000 N 
ATOM     53  H   TRP E   7     128.775 137.150 106.222  0.00  0.00    +0.000 HD
ATOM     54  CA  TRP E   7     129.028 138.048 104.303  0.00  0.00    +0.000 C 
ATOM     55  C   TRP E   7     128.407 137.255 103.162  0.00  0.00    +0.000 C 
ATOM     56  O   TRP E   7     128.834 137.415 102.014  0.00  0.00    +0.000 OA
ATOM     57  CB  TRP E   7     130.516 137.707 104.407  0.00  0.00    +0.000 C 
ATOM     58  CG  TRP E   7     131.306 138.738 105.133  0.00  0.00    +0.000 A 
ATOM     59  CD1 TRP E   7     131.864 138.624 106.372  0.00  0.00    +0.000 A 
ATOM     60  CD2 TRP E   7     131.619 140.053 104.669  0.00  0.00    +0.000 A 
ATOM     61  NE1 TRP E   7     132.512 139.788 106.706  0.00  0.00    +0.000 N 
ATOM     62  HE1 TRP E   7     132.945 139.974 107.600  0.00  0.00    +0.000 HD
ATOM     63  CE2 TRP E   7     132.374 140.682 105.677  0.00  0.00    +0.000 A 
ATOM     64  CE3 TRP E   7     131.335 140.759 103.498  0.00  0.00    +0.000 A 
ATOM     65  CZ2 TRP E   7     132.853 141.981 105.546  0.00  0.00    +0.000 A 
ATOM     66  CZ3 TRP E   7     131.807 142.049 103.372  0.00  0.00    +0.000 A 
ATOM     67  CH2 TRP E   7     132.557 142.648 104.390  0.00  0.00    +0.000 A 
ATOM     68  N   ALA E   8     127.423 136.403 103.445  0.00  0.00    +0.000 N 
ATOM     69  H   ALA E   8     127.076 136.314 104.389  0.00  0.00    +0.000 HD
ATOM     70  CA  ALA E   8     126.775 135.650 102.374  0.00  0.00    +0.000 C 
ATOM     71  C   ALA E   8     126.074 136.549 101.361  0.00  0.00    +0.000 C 
ATOM     72  O   ALA E   8     126.306 136.371 100.153  0.00  0.00    +0.000 OA
ATOM     73  CB  ALA E   8     125.814 134.618 102.975  0.00  0.00    +0.000 C 
ATOM     74  N   PRO E   9     125.222 137.507 101.751  0.00  0.00    +0.000 N 
ATOM     75  CA  PRO E   9     124.583 138.356 100.731  0.00  0.00    +0.000 C 
ATOM     76  C   PRO E   9     125.565 139.191  99.930  0.00  0.00    +0.000 C 
ATOM     77  O   PRO E   9     125.309 139.467  98.751  0.00  0.00    +0.000 OA
ATOM     78  CB  PRO E   9     123.630 139.235 101.553  0.00  0.00    +0.000 C 
ATOM     79  CG  PRO E   9     124.224 139.263 102.908  0.00  0.00    +0.000 C 
ATOM     80  CD  PRO E   9     124.797 137.896 103.109  0.00  0.00    +0.000 C 
ATOM     81  N   TYR E  10     126.677 139.615 100.537  0.00  0.00    +0.000 N 
ATOM     82  H   TYR E  10     126.855 139.356 101.495  0.00  0.00    +0.000 HD
ATOM     83  CA  TYR E  10     127.650 140.427  99.813  0.00  0.00    +0.000 C 
ATOM     84  C   TYR E  10     128.246 139.665  98.637  0.00  0.00    +0.000 C 
ATOM     85  O   TYR E  10     128.390 140.217  97.540  0.00  0.00    +0.000 OA
ATOM     86  CB  TYR E  10     128.752 140.898 100.763  0.00  0.00    +0.000 C 
ATOM     87  CG  TYR E  10     129.940 141.514 100.060  0.00  0.00    +0.000 A 
ATOM     88  CD1 TYR E  10     129.878 142.803  99.548  0.00  0.00    +0.000 A 
ATOM     89  CD2 TYR E  10     131.126 140.807  99.912  0.00  0.00    +0.000 A 
ATOM     90  CE1 TYR E  10     130.963 143.369  98.905  0.00  0.00    +0.000 A 
ATOM     91  CE2 TYR E  10     132.215 141.365  99.271  0.00  0.00    +0.000 A 
ATOM     92  CZ  TYR E  10     132.128 142.646  98.770  0.00  0.00    +0.000 A 
ATOM     93  OH  TYR E  10     133.211 143.204  98.131  0.00  0.00    +0.000 OA
ATOM     94  HH  TYR E  10     134.022 142.751  98.353  0.00  0.00    +0.000 HD
ATOM     95  N   TYR E  11     128.604 138.396  98.844  0.00  0.00    +0.000 N 
ATOM     96  H   TYR E  11     128.492 137.977  99.758  0.00  0.00    +0.000 HD
ATOM     97  CA  TYR E  11     129.136 137.597  97.747  0.00  0.00    +0.000 C 
ATOM     98  C   TYR E  11     128.068 137.222  96.729  0.00  0.00    +0.000 C 
ATOM     99  O   TYR E  11     128.409 136.895  95.588  0.00  0.00    +0.000 OA
ATOM    100  CB  TYR E  11     129.810 136.336  98.287  0.00  0.00    +0.000 C 
ATOM    101  CG  TYR E  11     131.236 136.562  98.730  0.00  0.00    +0.000 A 
ATOM    102  CD1 TYR E  11     132.263 136.644  97.800  0.00  0.00    +0.000 A 
ATOM    103  CD2 TYR E  11     131.555 136.698 100.073  0.00  0.00    +0.000 A 
ATOM    104  CE1 TYR E  11     133.568 136.853  98.194  0.00  0.00    +0.000 A 
ATOM    105  CE2 TYR E  11     132.859 136.907 100.477  0.00  0.00    +0.000 A 
ATOM    106  CZ  TYR E  11     133.862 136.983  99.534  0.00  0.00    +0.000 A 
ATOM    107  OH  TYR E  11     135.163 137.192  99.930  0.00  0.00    +0.000 OA
ATOM    108  HH  TYR E  11     135.282 137.545 100.816  0.00  0.00    +0.000 HD
ATOM    109  N   VAL E  12     126.791 137.254  97.114  0.00  0.00    +0.000 N 
ATOM    110  H   VAL E  12     126.561 137.481  98.071  0.00  0.00    +0.000 HD
ATOM    111  CA  VAL E  12     125.720 137.040  96.144  0.00  0.00    +0.000 C 
ATOM    112  C   VAL E  12     125.734 138.146  95.097  0.00  0.00    +0.000 C 
ATOM    113  O   VAL E  12     125.692 137.886  93.889  0.00  0.00    +0.000 OA
ATOM    114  CB  VAL E  12     124.358 136.948  96.854  0.00  0.00    +0.000 C 
ATOM    115  CG1 VAL E  12     123.229 136.940  95.837  0.00  0.00    +0.000 C 
ATOM    116  CG2 VAL E  12     124.300 135.703  97.724  0.00  0.00    +0.000 C 
ATOM    117  N   NME E  13     125.799 139.401  95.549  0.00  0.00    +0.000 N 
ATOM    118  H   NME E  13     125.873 139.563  96.546  0.00  0.00    +0.000 HD
ATOM    119  C   NME E  13     125.901 140.521  94.619  0.00  0.00    +0.000 C 
TER 
REMARK  Name = /home/xianyang/aimnet2_score_pipelines/work/L1234-fixed-receptor-eint-20260921/L4/Q99705/prepared.pdb
REMARK                            x       y       z     vdW  Elec       q    Type
REMARK                         _______ _______ _______ _____ _____    ______ ____
ATOM      1  CH3 ACE F   1     121.706 150.540  97.781  0.00  0.00    +0.000 C 
ATOM      2  C   ACE F   1     121.930 149.146  98.352  0.00  0.00    +0.000 C 
ATOM      3  O   ACE F   1     122.309 148.999  99.520  0.00  0.00    +0.000 OA
ATOM      4  N   LEU F   2     121.695 148.108  97.545  0.00  0.00    +0.000 N 
ATOM      5  H   LEU F   2     121.306 148.265  96.629  0.00  0.00    +0.000 HD
ATOM      6  CA  LEU F   2     121.949 146.746  98.002  0.00  0.00    +0.000 C 
ATOM      7  C   LEU F   2     123.433 146.513  98.252  0.00  0.00    +0.000 C 
ATOM      8  O   LEU F   2     123.807 145.844  99.223  0.00  0.00    +0.000 OA
ATOM      9  CB  LEU F   2     121.411 145.741  96.984  0.00  0.00    +0.000 C 
ATOM     10  CG  LEU F   2     119.890 145.671  96.836  0.00  0.00    +0.000 C 
ATOM     11  CD1 LEU F   2     119.501 144.662  95.767  0.00  0.00    +0.000 C 
ATOM     12  CD2 LEU F   2     119.236 145.326  98.165  0.00  0.00    +0.000 C 
ATOM     13  N   TYR F   3     124.294 147.047  97.381  0.00  0.00    +0.000 N 
ATOM     14  H   TYR F   3     123.944 147.535  96.573  0.00  0.00    +0.000 HD
ATOM     15  CA  TYR F   3     125.732 146.884  97.565  0.00  0.00    +0.000 C 
ATOM     16  C   TYR F   3     126.203 147.549  98.853  0.00  0.00    +0.000 C 
ATOM     17  O   TYR F   3     127.006 146.976  99.599  0.00  0.00    +0.000 OA
ATOM     18  CB  TYR F   3     126.479 147.451  96.358  0.00  0.00    +0.000 C 
ATOM     19  CG  TYR F   3     127.983 147.343  96.454  0.00  0.00    +0.000 A 
ATOM     20  CD1 TYR F   3     128.628 146.134  96.228  0.00  0.00    +0.000 A 
ATOM     21  CD2 TYR F   3     128.760 148.452  96.759  0.00  0.00    +0.000 A 
ATOM     22  CE1 TYR F   3     130.003 146.031  96.312  0.00  0.00    +0.000 A 
ATOM     23  CE2 TYR F   3     130.135 148.360  96.843  0.00  0.00    +0.000 A 
ATOM     24  CZ  TYR F   3     130.752 147.147  96.619  0.00  0.00    +0.000 A 
ATOM     25  OH  TYR F   3     132.122 147.051  96.703  0.00  0.00    +0.000 OA
ATOM     26  HH  TYR F   3     132.522 147.867  97.003  0.00  0.00    +0.000 HD
ATOM     27  N   ASN F   4     125.718 148.762  99.127  0.00  0.00    +0.000 N 
ATOM     28  H   ASN F   4     125.068 149.192  98.492  0.00  0.00    +0.000 HD
ATOM     29  CA  ASN F   4     126.066 149.433 100.375  0.00  0.00    +0.000 C 
ATOM     30  C   ASN F   4     125.494 148.697 101.580  0.00  0.00    +0.000 C 
ATOM     31  O   ASN F   4     126.163 148.571 102.613  0.00  0.00    +0.000 OA
ATOM     32  CB  ASN F   4     125.578 150.880 100.344  0.00  0.00    +0.000 C 
ATOM     33  CG  ASN F   4     126.433 151.762  99.457  0.00  0.00    +0.000 C 
ATOM     34  OD1 ASN F   4     127.645 151.573  99.359  0.00  0.00    +0.000 OA
ATOM     35  ND2 ASN F   4     125.805 152.734  98.806  0.00  0.00    +0.000 N 
ATOM     36 HD21 ASN F   4     124.832 152.907  98.964  0.00  0.00    +0.000 HD
ATOM     37 HD22 ASN F   4     126.391 153.331  98.249  0.00  0.00    +0.000 HD
ATOM     38  N   ALA F   5     124.254 148.213 101.471  0.00  0.00    +0.000 N 
ATOM     39  H   ALA F   5     123.701 148.392 100.641  0.00  0.00    +0.000 HD
ATOM     40  CA  ALA F   5     123.633 147.504 102.585  0.00  0.00    +0.000 C 
ATOM     41  C   ALA F   5     124.365 146.204 102.894  0.00  0.00    +0.000 C 
ATOM     42  O   ALA F   5     124.545 145.850 104.065  0.00  0.00    +0.000 OA
ATOM     43  CB  ALA F   5     122.161 147.232 102.280  0.00  0.00    +0.000 C 
ATOM     44  N   ALA F   6     124.783 145.473 101.857  0.00  0.00    +0.000 N 
ATOM     45  H   ALA F   6     124.560 145.763 100.910  0.00  0.00    +0.000 HD
ATOM     46  CA  ALA F   6     125.444 144.191 102.071  0.00  0.00    +0.000 C 
ATOM     47  C   ALA F   6     126.757 144.364 102.824  0.00  0.00    +0.000 C 
ATOM     48  O   ALA F   6     127.072 143.579 103.726  0.00  0.00    +0.000 OA
ATOM     49  CB  ALA F   6     125.678 143.490 100.733  0.00  0.00    +0.000 C 
ATOM     50  N   ILE F   7     127.541 145.381 102.460  0.00  0.00    +0.000 N 
ATOM     51  H   ILE F   7     127.268 145.970 101.681  0.00  0.00    +0.000 HD
ATOM     52  CA  ILE F   7     128.826 145.601 103.117  0.00  0.00    +0.000 C 
ATOM     53  C   ILE F   7     128.623 145.981 104.578  0.00  0.00    +0.000 C 
ATOM     54  O   ILE F   7     129.405 145.583 105.452  0.00  0.00    +0.000 OA
ATOM     55  CB  ILE F   7     129.635 146.667 102.357  0.00  0.00    +0.000 C 
ATOM     56  CG1 ILE F   7     129.917 146.202 100.929  0.00  0.00    +0.000 C 
ATOM     57  CG2 ILE F   7     130.939 146.970 103.077  0.00  0.00    +0.000 C 
ATOM     58  CD1 ILE F   7     130.773 147.163 100.136  0.00  0.00    +0.000 C 
ATOM     59  N   SER F   8     127.574 146.754 104.870  0.00  0.00    +0.000 N 
ATOM     60  H   SER F   8     127.011 147.133 104.118  0.00  0.00    +0.000 HD
ATOM     61  CA  SER F   8     127.287 147.120 106.253  0.00  0.00    +0.000 C 
ATOM     62  C   SER F   8     126.998 145.888 107.102  0.00  0.00    +0.000 C 
ATOM     63  O   SER F   8     127.469 145.785 108.241  0.00  0.00    +0.000 OA
ATOM     64  CB  SER F   8     126.111 148.095 106.303  0.00  0.00    +0.000 C 
ATOM     65  OG  SER F   8     124.948 147.521 105.731  0.00  0.00    +0.000 OA
ATOM     66  HG  SER F   8     125.101 146.898 104.995  0.00  0.00    +0.000 HD
ATOM     67  N   LEU F   9     126.220 144.945 106.566  0.00  0.00    +0.000 N 
ATOM     68  H   LEU F   9     125.809 145.086 105.653  0.00  0.00    +0.000 HD
ATOM     69  CA  LEU F   9     125.992 143.687 107.270  0.00  0.00    +0.000 C 
ATOM     70  C   LEU F   9     127.285 142.895 107.414  0.00  0.00    +0.000 C 
ATOM     71  O   LEU F   9     127.528 142.273 108.455  0.00  0.00    +0.000 OA
ATOM     72  CB  LEU F   9     124.934 142.858 106.542  0.00  0.00    +0.000 C 
ATOM     73  CG  LEU F   9     123.491 143.356 106.642  0.00  0.00    +0.000 C 
ATOM     74  CD1 LEU F   9     122.554 142.443 105.867  0.00  0.00    +0.000 C 
ATOM     75  CD2 LEU F   9     123.059 143.459 108.097  0.00  0.00    +0.000 C 
ATOM     76  N   GLY F  10     128.119 142.894 106.373  0.00  0.00    +0.000 N 
ATOM     77  H   GLY F  10     127.844 143.343 105.506  0.00  0.00    +0.000 HD
ATOM     78  CA  GLY F  10     129.363 142.144 106.435  0.00  0.00    +0.000 C 
ATOM     79  C   GLY F  10     130.315 142.664 107.494  0.00  0.00    +0.000 C 
ATOM     80  O   GLY F  10     130.949 141.885 108.209  0.00  0.00    +0.000 OA
ATOM     81  N   TYR F  11     130.432 143.987 107.609  0.00  0.00    +0.000 N 
ATOM     82  H   TYR F  11     129.956 144.588 106.943  0.00  0.00    +0.000 HD
ATOM     83  CA  TYR F  11     131.301 144.579 108.617  0.00  0.00    +0.000 C 
ATOM     84  C   TYR F  11     130.687 144.565 110.009  0.00  0.00    +0.000 C 
ATOM     85  O   TYR F  11     131.383 144.892 110.976  0.00  0.00    +0.000 OA
ATOM     86  CB  TYR F  11     131.663 146.013 108.227  0.00  0.00    +0.000 C 
ATOM     87  CG  TYR F  11     132.672 146.096 107.106  0.00  0.00    +0.000 A 
ATOM     88  CD1 TYR F  11     133.538 145.044 106.848  0.00  0.00    +0.000 A 
ATOM     89  CD2 TYR F  11     132.761 147.226 106.306  0.00  0.00    +0.000 A 
ATOM     90  CE1 TYR F  11     134.462 145.112 105.824  0.00  0.00    +0.000 A 
ATOM     91  CE2 TYR F  11     133.684 147.303 105.281  0.00  0.00    +0.000 A 
ATOM     92  CZ  TYR F  11     134.531 146.244 105.044  0.00  0.00    +0.000 A 
ATOM     93  OH  TYR F  11     135.450 146.319 104.024  0.00  0.00    +0.000 OA
ATOM     94  HH  TYR F  11     136.322 145.919 104.214  0.00  0.00    +0.000 HD
ATOM     95  N   ALA F  12     129.412 144.193 110.136  0.00  0.00    +0.000 N 
ATOM     96  H   ALA F  12     128.847 144.019 109.315  0.00  0.00    +0.000 HD
ATOM     97  CA  ALA F  12     128.818 144.010 111.455  0.00  0.00    +0.000 C 
ATOM     98  C   ALA F  12     129.463 142.862 112.217  0.00  0.00    +0.000 C 
ATOM     99  O   ALA F  12     129.284 142.761 113.435  0.00  0.00    +0.000 OA
ATOM    100  CB  ALA F  12     127.312 143.774 111.327  0.00  0.00    +0.000 C 
ATOM    101  N   ASN F  13     130.206 141.994 111.524  0.00  0.00    +0.000 N 
ATOM    102  H   ASN F  13     130.296 142.105 110.522  0.00  0.00    +0.000 HD
ATOM    103  CA  ASN F  13     130.943 140.926 112.188  0.00  0.00    +0.000 C 
ATOM    104  C   ASN F  13     131.985 141.462 113.161  0.00  0.00    +0.000 C 
ATOM    105  O   ASN F  13     132.364 140.750 114.097  0.00  0.00    +0.000 OA
ATOM    106  CB  ASN F  13     131.611 140.031 111.143  0.00  0.00    +0.000 C 
ATOM    107  CG  ASN F  13     132.375 138.881 111.764  0.00  0.00    +0.000 C 
ATOM    108  OD1 ASN F  13     133.563 138.999 112.060  0.00  0.00    +0.000 OA
ATOM    109  ND2 ASN F  13     131.694 137.759 111.966  0.00  0.00    +0.000 N 
ATOM    110 HD21 ASN F  13     130.706 137.753 111.802  0.00  0.00    +0.000 HD
ATOM    111 HD22 ASN F  13     132.190 137.081 112.516  0.00  0.00    +0.000 HD
ATOM    112  N   SER F  14     132.457 142.696 112.963  0.00  0.00    +0.000 N 
ATOM    113  H   SER F  14     132.203 143.233 112.144  0.00  0.00    +0.000 HD
ATOM    114  CA  SER F  14     133.418 143.276 113.895  0.00  0.00    +0.000 C 
ATOM    115  C   SER F  14     132.822 143.428 115.286  0.00  0.00    +0.000 C 
ATOM    116  O   SER F  14     133.546 143.355 116.285  0.00  0.00    +0.000 OA
ATOM    117  CB  SER F  14     133.897 144.634 113.382  0.00  0.00    +0.000 C 
ATOM    118  OG  SER F  14     134.276 144.566 112.021  0.00  0.00    +0.000 OA
ATOM    119  HG  SER F  14     135.227 144.702 111.971  0.00  0.00    +0.000 HD
ATOM    120  N   CYS F  15     131.510 143.645 115.372  0.00  0.00    +0.000 N 
ATOM    121  H   CYS F  15     130.963 143.658 114.523  0.00  0.00    +0.000 HD
ATOM    122  CA  CYS F  15     130.845 143.895 116.643  0.00  0.00    +0.000 C 
ATOM    123  C   CYS F  15     130.346 142.615 117.300  0.00  0.00    +0.000 C 
ATOM    124  O   CYS F  15     130.491 142.447 118.516  0.00  0.00    +0.000 OA
ATOM    125  CB  CYS F  15     129.677 144.863 116.440  0.00  0.00    +0.000 C 
ATOM    126  SG  CYS F  15     130.126 146.414 115.629  0.00  0.00    +0.000 S 
ATOM    127  HG  CYS F  15     130.942 146.875 116.584  0.00  0.00    +0.000 HD
ATOM    128  N   NME F  16     129.748 141.713 116.519  0.00  0.00    +0.000 N 
ATOM    129  H   NME F  16     129.704 141.878 115.521  0.00  0.00    +0.000 HD
ATOM    130  C   NME F  16     129.114 140.529 117.094  0.00  0.00    +0.000 C 
TER 
