REMARK  Name = /home/xianyang/aimnet2_score_pipelines/work/L1234-fixed-receptor-eint-20260921/L2/P31645/prepared.pdb
REMARK                            x       y       z     vdW  Elec       q    Type
REMARK                         _______ _______ _______ _____ _____    ______ ____
ATOM      1  CH3 ACE A   1     123.385 138.725 119.288  0.00  0.00    +0.000 C 
ATOM      2  C   ACE A   1     124.582 138.742 120.231  0.00  0.00    +0.000 C 
ATOM      3  O   ACE A   1     125.480 137.898 120.134  0.00  0.00    +0.000 OA
ATOM      4  N   VAL A   2     124.614 139.698 121.153  0.00  0.00    +0.000 N 
ATOM      5  H   VAL A   2     123.825 140.316 121.235  0.00  0.00    +0.000 HD
ATOM      6  CA  VAL A   2     125.742 139.868 122.064  0.00  0.00    +0.000 C 
ATOM      7  C   VAL A   2     125.565 138.930 123.256  0.00  0.00    +0.000 C 
ATOM      8  O   VAL A   2     124.708 139.150 124.115  0.00  0.00    +0.000 OA
ATOM      9  CB  VAL A   2     125.889 141.333 122.499  0.00  0.00    +0.000 C 
ATOM     10  CG1 VAL A   2     124.573 141.895 123.029  0.00  0.00    +0.000 C 
ATOM     11  CG2 VAL A   2     126.970 141.458 123.555  0.00  0.00    +0.000 C 
ATOM     12  N   ASP A   3     126.360 137.856 123.302  0.00  0.00    +0.000 N 
ATOM     13  H   ASP A   3     126.863 137.544 122.473  0.00  0.00    +0.000 HD
ATOM     14  CA  ASP A   3     126.274 136.912 124.414  0.00  0.00    +0.000 C 
ATOM     15  C   ASP A   3     127.555 136.856 125.237  0.00  0.00    +0.000 C 
ATOM     16  O   ASP A   3     127.523 137.201 126.416  0.00  0.00    +0.000 OA
ATOM     17  CB  ASP A   3     125.902 135.527 123.884  0.00  0.00    +0.000 C 
ATOM     18  CG  ASP A   3     126.813 135.061 122.765  0.00  0.00    +0.000 C 
ATOM     19  OD1 ASP A   3     127.673 135.854 122.328  0.00  0.00    +0.000 OA
ATOM     20  OD2 ASP A   3     126.682 133.894 122.339  0.00  0.00    +0.000 OA
ATOM     21  N   LEU A   4     128.678 136.415 124.670  0.00  0.00    +0.000 N 
ATOM     22  H   LEU A   4     128.624 136.095 123.709  0.00  0.00    +0.000 HD
ATOM     23  CA  LEU A   4     129.949 136.426 125.392  0.00  0.00    +0.000 C 
ATOM     24  C   LEU A   4     131.143 136.818 124.540  0.00  0.00    +0.000 C 
ATOM     25  O   LEU A   4     132.153 137.274 125.096  0.00  0.00    +0.000 OA
ATOM     26  CB  LEU A   4     130.223 135.057 126.028  0.00  0.00    +0.000 C 
ATOM     27  CG  LEU A   4     129.274 134.612 127.146  0.00  0.00    +0.000 C 
ATOM     28  CD1 LEU A   4     129.498 133.149 127.494  0.00  0.00    +0.000 C 
ATOM     29  CD2 LEU A   4     129.424 135.495 128.378  0.00  0.00    +0.000 C 
ATOM     30  N   GLY A   5     131.078 136.645 123.223  0.00  0.00    +0.000 N 
ATOM     31  H   GLY A   5     130.238 136.236 122.823  0.00  0.00    +0.000 HD
ATOM     32  CA  GLY A   5     132.157 137.047 122.353  0.00  0.00    +0.000 C 
ATOM     33  C   GLY A   5     132.411 138.525 122.515  0.00  0.00    +0.000 C 
ATOM     34  O   GLY A   5     133.515 138.926 122.882  0.00  0.00    +0.000 OA
ATOM     35  N   ASN A   6     131.370 139.330 122.318  0.00  0.00    +0.000 N 
ATOM     36  H   ASN A   6     130.499 138.941 121.984  0.00  0.00    +0.000 HD
ATOM     37  CA  ASN A   6     131.522 140.774 122.390  0.00  0.00    +0.000 C 
ATOM     38  C   ASN A   6     131.950 141.255 123.770  0.00  0.00    +0.000 C 
ATOM     39  O   ASN A   6     132.401 142.397 123.893  0.00  0.00    +0.000 OA
ATOM     40  CB  ASN A   6     130.217 141.452 121.979  0.00  0.00    +0.000 C 
ATOM     41  CG  ASN A   6     129.622 140.850 120.722  0.00  0.00    +0.000 C 
ATOM     42  OD1 ASN A   6     129.878 141.319 119.614  0.00  0.00    +0.000 OA
ATOM     43  ND2 ASN A   6     128.823 139.804 120.888  0.00  0.00    +0.000 N 
ATOM     44 HD21 ASN A   6     128.532 139.491 121.793  0.00  0.00    +0.000 HD
ATOM     45 HD22 ASN A   6     128.438 139.397 120.035  0.00  0.00    +0.000 HD
ATOM     46  N   VAL A   7     131.840 140.425 124.807  0.00  0.00    +0.000 N 
ATOM     47  H   VAL A   7     131.524 139.475 124.682  0.00  0.00    +0.000 HD
ATOM     48  CA  VAL A   7     132.208 140.904 126.135  0.00  0.00    +0.000 C 
ATOM     49  C   VAL A   7     133.618 140.473 126.545  0.00  0.00    +0.000 C 
ATOM     50  O   VAL A   7     134.297 141.217 127.260  0.00  0.00    +0.000 OA
ATOM     51  CB  VAL A   7     131.169 140.486 127.196  0.00  0.00    +0.000 C 
ATOM     52  CG1 VAL A   7     131.222 139.000 127.478  0.00  0.00    +0.000 C 
ATOM     53  CG2 VAL A   7     131.369 141.283 128.479  0.00  0.00    +0.000 C 
ATOM     54  N   TRP A   8     134.101 139.301 126.116  0.00  0.00    +0.000 N 
ATOM     55  H   TRP A   8     133.515 138.631 125.633  0.00  0.00    +0.000 HD
ATOM     56  CA  TRP A   8     135.492 139.020 126.471  0.00  0.00    +0.000 C 
ATOM     57  C   TRP A   8     136.377 138.635 125.289  0.00  0.00    +0.000 C 
ATOM     58  O   TRP A   8     137.578 138.920 125.301  0.00  0.00    +0.000 OA
ATOM     59  CB  TRP A   8     135.597 137.932 127.553  0.00  0.00    +0.000 C 
ATOM     60  CG  TRP A   8     135.253 136.514 127.159  0.00  0.00    +0.000 A 
ATOM     61  CD1 TRP A   8     135.827 135.770 126.170  0.00  0.00    +0.000 A 
ATOM     62  CD2 TRP A   8     134.343 135.636 127.834  0.00  0.00    +0.000 A 
ATOM     63  NE1 TRP A   8     135.287 134.510 126.143  0.00  0.00    +0.000 N 
ATOM     64  HE1 TRP A   8     135.627 133.740 125.583  0.00  0.00    +0.000 HD
ATOM     65  CE2 TRP A   8     134.377 134.399 127.160  0.00  0.00    +0.000 A 
ATOM     66  CE3 TRP A   8     133.483 135.784 128.924  0.00  0.00    +0.000 A 
ATOM     67  CZ2 TRP A   8     133.586 133.320 127.540  0.00  0.00    +0.000 A 
ATOM     68  CZ3 TRP A   8     132.700 134.711 129.301  0.00  0.00    +0.000 A 
ATOM     69  CH2 TRP A   8     132.757 133.496 128.611  0.00  0.00    +0.000 A 
ATOM     70  N   ARG A   9     135.814 137.988 124.270  0.00  0.00    +0.000 N 
ATOM     71  H   ARG A   9     134.810 137.846 124.266  0.00  0.00    +0.000 HD
ATOM     72  CA  ARG A   9     136.657 137.404 123.235  0.00  0.00    +0.000 C 
ATOM     73  C   ARG A   9     137.052 138.430 122.184  0.00  0.00    +0.000 C 
ATOM     74  O   ARG A   9     138.139 138.335 121.605  0.00  0.00    +0.000 OA
ATOM     75  CB  ARG A   9     135.944 136.221 122.581  0.00  0.00    +0.000 C 
ATOM     76  CG  ARG A   9     136.862 135.321 121.772  0.00  0.00    +0.000 C 
ATOM     77  CD  ARG A   9     136.115 134.113 121.245  0.00  0.00    +0.000 C 
ATOM     78  NE  ARG A   9     135.375 133.432 122.302  0.00  0.00    +0.000 N 
ATOM     79  HE  ARG A   9     134.406 133.666 122.432  0.00  0.00    +0.000 HD
ATOM     80  CZ  ARG A   9     135.875 132.458 123.055  0.00  0.00    +0.000 C 
ATOM     81  NH1 ARG A   9     137.121 132.047 122.868  0.00  0.00    +0.000 N 
ATOM     82 HH11 ARG A   9     137.659 132.380 122.094  0.00  0.00    +0.000 HD
ATOM     83 HH12 ARG A   9     137.423 131.208 123.350  0.00  0.00    +0.000 HD
ATOM     84  NH2 ARG A   9     135.128 131.895 123.995  0.00  0.00    +0.000 N 
ATOM     85 HH21 ARG A   9     134.138 132.024 124.034  0.00  0.00    +0.000 HD
ATOM     86 HH22 ARG A   9     135.436 131.010 124.417  0.00  0.00    +0.000 HD
ATOM     87  N   PHE A  10     136.193 139.414 121.922  0.00  0.00    +0.000 N 
ATOM     88  H   PHE A  10     135.295 139.436 122.392  0.00  0.00    +0.000 HD
ATOM     89  CA  PHE A  10     136.525 140.410 120.909  0.00  0.00    +0.000 C 
ATOM     90  C   PHE A  10     137.761 141.233 121.254  0.00  0.00    +0.000 C 
ATOM     91  O   PHE A  10     138.600 141.425 120.360  0.00  0.00    +0.000 OA
ATOM     92  CB  PHE A  10     135.326 141.326 120.642  0.00  0.00    +0.000 C 
ATOM     93  CG  PHE A  10     135.605 142.389 119.624  0.00  0.00    +0.000 A 
ATOM     94  CD1 PHE A  10     135.736 142.064 118.286  0.00  0.00    +0.000 A 
ATOM     95  CD2 PHE A  10     135.753 143.711 120.004  0.00  0.00    +0.000 A 
ATOM     96  CE1 PHE A  10     136.001 143.038 117.345  0.00  0.00    +0.000 A 
ATOM     97  CE2 PHE A  10     136.017 144.690 119.068  0.00  0.00    +0.000 A 
ATOM     98  CZ  PHE A  10     136.142 144.353 117.737  0.00  0.00    +0.000 A 
ATOM     99  N   PRO A  11     137.950 141.738 122.479  0.00  0.00    +0.000 N 
ATOM    100  CA  PRO A  11     139.224 142.420 122.763  0.00  0.00    +0.000 C 
ATOM    101  C   PRO A  11     140.404 141.466 122.831  0.00  0.00    +0.000 C 
ATOM    102  O   PRO A  11     141.495 141.798 122.344  0.00  0.00    +0.000 OA
ATOM    103  CB  PRO A  11     138.962 143.108 124.108  0.00  0.00    +0.000 C 
ATOM    104  CG  PRO A  11     137.889 142.305 124.736  0.00  0.00    +0.000 C 
ATOM    105  CD  PRO A  11     137.014 141.845 123.613  0.00  0.00    +0.000 C 
ATOM    106  N   TYR A  12     140.216 140.282 123.422  0.00  0.00    +0.000 N 
ATOM    107  H   TYR A  12     139.322 140.059 123.839  0.00  0.00    +0.000 HD
ATOM    108  CA  TYR A  12     141.298 139.306 123.492  0.00  0.00    +0.000 C 
ATOM    109  C   TYR A  12     141.721 138.835 122.108  0.00  0.00    +0.000 C 
ATOM    110  O   TYR A  12     142.904 138.554 121.886  0.00  0.00    +0.000 OA
ATOM    111  CB  TYR A  12     140.879 138.112 124.346  0.00  0.00    +0.000 C 
ATOM    112  CG  TYR A  12     141.777 136.909 124.174  0.00  0.00    +0.000 A 
ATOM    113  CD1 TYR A  12     143.066 136.904 124.687  0.00  0.00    +0.000 A 
ATOM    114  CD2 TYR A  12     141.338 135.782 123.493  0.00  0.00    +0.000 A 
ATOM    115  CE1 TYR A  12     143.893 135.810 124.531  0.00  0.00    +0.000 A 
ATOM    116  CE2 TYR A  12     142.158 134.682 123.331  0.00  0.00    +0.000 A 
ATOM    117  CZ  TYR A  12     143.435 134.702 123.852  0.00  0.00    +0.000 A 
ATOM    118  OH  TYR A  12     144.257 133.610 123.695  0.00  0.00    +0.000 OA
ATOM    119  HH  TYR A  12     145.148 133.782 124.007  0.00  0.00    +0.000 HD
ATOM    120  N   ILE A  13     140.777 138.738 121.169  0.00  0.00    +0.000 N 
ATOM    121  H   ILE A  13     139.808 138.899 121.407  0.00  0.00    +0.000 HD
ATOM    122  CA  ILE A  13     141.117 138.404 119.790  0.00  0.00    +0.000 C 
ATOM    123  C   ILE A  13     141.472 139.639 118.978  0.00  0.00    +0.000 C 
ATOM    124  O   ILE A  13     141.943 139.507 117.838  0.00  0.00    +0.000 OA
ATOM    125  CB  ILE A  13     139.961 137.640 119.114  0.00  0.00    +0.000 C 
ATOM    126  CG1 ILE A  13     140.496 136.650 118.080  0.00  0.00    +0.000 C 
ATOM    127  CG2 ILE A  13     138.976 138.605 118.473  0.00  0.00    +0.000 C 
ATOM    128  CD1 ILE A  13     139.481 135.612 117.664  0.00  0.00    +0.000 C 
ATOM    129  N   CYS A  14     141.282 140.835 119.535  0.00  0.00    +0.000 N 
ATOM    130  H   CYS A  14     140.866 140.882 120.452  0.00  0.00    +0.000 HD
ATOM    131  CA  CYS A  14     141.528 142.085 118.835  0.00  0.00    +0.000 C 
ATOM    132  C   CYS A  14     142.846 142.729 119.251  0.00  0.00    +0.000 C 
ATOM    133  O   CYS A  14     143.268 143.714 118.642  0.00  0.00    +0.000 OA
ATOM    134  CB  CYS A  14     140.352 143.040 119.067  0.00  0.00    +0.000 C 
ATOM    135  SG  CYS A  14     140.541 144.750 118.499  0.00  0.00    +0.000 S 
ATOM    136  HG  CYS A  14     141.854 144.860 118.755  0.00  0.00    +0.000 HD
ATOM    137  N   NME A  15     143.527 142.173 120.252  0.00  0.00    +0.000 N 
ATOM    138  H   NME A  15     143.117 141.415 120.782  0.00  0.00    +0.000 HD
ATOM    139  C   NME A  15     144.864 142.668 120.564  0.00  0.00    +0.000 C 
TER 
REMARK  Name = /home/xianyang/aimnet2_score_pipelines/work/L1234-fixed-receptor-eint-20260921/L2/P31645/prepared.pdb
REMARK                            x       y       z     vdW  Elec       q    Type
REMARK                         _______ _______ _______ _____ _____    ______ ____
ATOM      1  CH3 ACE B   1     123.197 124.636 126.085  0.00  0.00    +0.000 C 
ATOM      2  C   ACE B   1     123.785 123.775 127.191  0.00  0.00    +0.000 C 
ATOM      3  O   ACE B   1     123.637 124.113 128.369  0.00  0.00    +0.000 OA
ATOM      4  N   SER B   2     124.443 122.669 126.837  0.00  0.00    +0.000 N 
ATOM      5  H   SER B   2     124.445 122.385 125.871  0.00  0.00    +0.000 HD
ATOM      6  CA  SER B   2     125.185 121.904 127.830  0.00  0.00    +0.000 C 
ATOM      7  C   SER B   2     126.434 122.651 128.277  0.00  0.00    +0.000 C 
ATOM      8  O   SER B   2     126.679 122.805 129.479  0.00  0.00    +0.000 OA
ATOM      9  CB  SER B   2     125.551 120.532 127.265  0.00  0.00    +0.000 C 
ATOM     10  OG  SER B   2     125.952 119.646 128.292  0.00  0.00    +0.000 OA
ATOM     11  HG  SER B   2     126.617 120.058 128.851  0.00  0.00    +0.000 HD
ATOM     12  N   TYR B   3     127.239 123.125 127.329  0.00  0.00    +0.000 N 
ATOM     13  H   TYR B   3     127.021 122.990 126.356  0.00  0.00    +0.000 HD
ATOM     14  CA  TYR B   3     128.510 123.737 127.711  0.00  0.00    +0.000 C 
ATOM     15  C   TYR B   3     128.406 125.232 127.991  0.00  0.00    +0.000 C 
ATOM     16  O   TYR B   3     129.377 125.820 128.475  0.00  0.00    +0.000 OA
ATOM     17  CB  TYR B   3     129.583 123.503 126.639  0.00  0.00    +0.000 C 
ATOM     18  CG  TYR B   3     129.680 124.553 125.548  0.00  0.00    +0.000 A 
ATOM     19  CD1 TYR B   3     129.003 124.402 124.350  0.00  0.00    +0.000 A 
ATOM     20  CD2 TYR B   3     130.489 125.674 125.702  0.00  0.00    +0.000 A 
ATOM     21  CE1 TYR B   3     129.100 125.352 123.350  0.00  0.00    +0.000 A 
ATOM     22  CE2 TYR B   3     130.585 126.630 124.714  0.00  0.00    +0.000 A 
ATOM     23  CZ  TYR B   3     129.894 126.463 123.537  0.00  0.00    +0.000 A 
ATOM     24  OH  TYR B   3     129.996 127.412 122.546  0.00  0.00    +0.000 OA
ATOM     25  HH  TYR B   3     130.754 127.986 122.674  0.00  0.00    +0.000 HD
ATOM     26  N   TYR B   4     127.264 125.860 127.722  0.00  0.00    +0.000 N 
ATOM     27  H   TYR B   4     126.494 125.328 127.356  0.00  0.00    +0.000 HD
ATOM     28  CA  TYR B   4     127.155 127.310 127.791  0.00  0.00    +0.000 C 
ATOM     29  C   TYR B   4     126.611 127.816 129.115  0.00  0.00    +0.000 C 
ATOM     30  O   TYR B   4     126.989 128.909 129.547  0.00  0.00    +0.000 OA
ATOM     31  CB  TYR B   4     126.259 127.812 126.654  0.00  0.00    +0.000 C 
ATOM     32  CG  TYR B   4     126.191 129.312 126.523  0.00  0.00    +0.000 A 
ATOM     33  CD1 TYR B   4     127.124 130.003 125.765  0.00  0.00    +0.000 A 
ATOM     34  CD2 TYR B   4     125.189 130.035 127.150  0.00  0.00    +0.000 A 
ATOM     35  CE1 TYR B   4     127.063 131.373 125.641  0.00  0.00    +0.000 A 
ATOM     36  CE2 TYR B   4     125.121 131.403 127.033  0.00  0.00    +0.000 A 
ATOM     37  CZ  TYR B   4     126.059 132.067 126.279  0.00  0.00    +0.000 A 
ATOM     38  OH  TYR B   4     125.988 133.432 126.165  0.00  0.00    +0.000 OA
ATOM     39  HH  TYR B   4     126.238 133.711 125.276  0.00  0.00    +0.000 HD
ATOM     40  N   ASN B   5     125.732 127.060 129.768  0.00  0.00    +0.000 N 
ATOM     41  H   ASN B   5     125.426 126.180 129.377  0.00  0.00    +0.000 HD
ATOM     42  CA  ASN B   5     125.177 127.497 131.039  0.00  0.00    +0.000 C 
ATOM     43  C   ASN B   5     126.154 127.342 132.196  0.00  0.00    +0.000 C 
ATOM     44  O   ASN B   5     125.907 127.893 133.272  0.00  0.00    +0.000 OA
ATOM     45  CB  ASN B   5     123.889 126.730 131.337  0.00  0.00    +0.000 C 
ATOM     46  CG  ASN B   5     122.783 127.059 130.357  0.00  0.00    +0.000 C 
ATOM     47  OD1 ASN B   5     122.224 126.174 129.711  0.00  0.00    +0.000 OA
ATOM     48  ND2 ASN B   5     122.468 128.343 130.233  0.00  0.00    +0.000 N 
ATOM     49 HD21 ASN B   5     122.931 129.041 130.778  0.00  0.00    +0.000 HD
ATOM     50 HD22 ASN B   5     121.689 128.551 129.622  0.00  0.00    +0.000 HD
ATOM     51  N   NME B   6     127.265 126.631 131.999  0.00  0.00    +0.000 N 
ATOM     52  H   NME B   6     127.447 126.226 131.094  0.00  0.00    +0.000 HD
ATOM     53  C   NME B   6     128.259 126.523 133.060  0.00  0.00    +0.000 C 
TER 
REMARK  Name = /home/xianyang/aimnet2_score_pipelines/work/L1234-fixed-receptor-eint-20260921/L2/P31645/prepared.pdb
REMARK                            x       y       z     vdW  Elec       q    Type
REMARK                         _______ _______ _______ _____ _____    ______ ____
ATOM      1  CH3 ACE C   1     141.343 136.894 108.676  0.00  0.00    +0.000 C 
ATOM      2  C   ACE C   1     140.500 135.723 109.159  0.00  0.00    +0.000 C 
ATOM      3  O   ACE C   1     139.273 135.838 109.272  0.00  0.00    +0.000 OA
ATOM      4  N   ILE C   2     141.141 134.591 109.456  0.00  0.00    +0.000 N 
ATOM      5  H   ILE C   2     142.141 134.539 109.340  0.00  0.00    +0.000 HD
ATOM      6  CA  ILE C   2     140.412 133.438 109.978  0.00  0.00    +0.000 C 
ATOM      7  C   ILE C   2     139.738 133.790 111.297  0.00  0.00    +0.000 C 
ATOM      8  O   ILE C   2     138.555 133.495 111.511  0.00  0.00    +0.000 OA
ATOM      9  CB  ILE C   2     141.356 132.234 110.137  0.00  0.00    +0.000 C 
ATOM     10  CG1 ILE C   2     141.758 131.686 108.767  0.00  0.00    +0.000 C 
ATOM     11  CG2 ILE C   2     140.708 131.166 111.001  0.00  0.00    +0.000 C 
ATOM     12  CD1 ILE C   2     143.106 130.998 108.757  0.00  0.00    +0.000 C 
ATOM     13  N   ASP C   3     140.485 134.427 112.202  0.00  0.00    +0.000 N 
ATOM     14  H   ASP C   3     141.476 134.534 112.057  0.00  0.00    +0.000 HD
ATOM     15  CA  ASP C   3     139.928 134.778 113.502  0.00  0.00    +0.000 C 
ATOM     16  C   ASP C   3     138.797 135.785 113.362  0.00  0.00    +0.000 C 
ATOM     17  O   ASP C   3     137.778 135.679 114.051  0.00  0.00    +0.000 OA
ATOM     18  CB  ASP C   3     141.029 135.321 114.411  0.00  0.00    +0.000 C 
ATOM     19  CG  ASP C   3     142.052 134.266 114.783  0.00  0.00    +0.000 C 
ATOM     20  OD1 ASP C   3     141.675 133.079 114.879  0.00  0.00    +0.000 OA
ATOM     21  OD2 ASP C   3     143.232 134.622 114.979  0.00  0.00    +0.000 OA
ATOM     22  N   ALA C   4     138.946 136.760 112.462  0.00  0.00    +0.000 N 
ATOM     23  H   ALA C   4     139.783 136.794 111.904  0.00  0.00    +0.000 HD
ATOM     24  CA  ALA C   4     137.891 137.748 112.268  0.00  0.00    +0.000 C 
ATOM     25  C   ALA C   4     136.628 137.104 111.716  0.00  0.00    +0.000 C 
ATOM     26  O   ALA C   4     135.519 137.407 112.172  0.00  0.00    +0.000 OA
ATOM     27  CB  ALA C   4     138.377 138.860 111.341  0.00  0.00    +0.000 C 
ATOM     28  N   ALA C   5     136.774 136.208 110.737  0.00  0.00    +0.000 N 
ATOM     29  H   ALA C   5     137.697 135.994 110.372  0.00  0.00    +0.000 HD
ATOM     30  CA  ALA C   5     135.609 135.530 110.179  0.00  0.00    +0.000 C 
ATOM     31  C   ALA C   5     134.912 134.683 111.235  0.00  0.00    +0.000 C 
ATOM     32  O   ALA C   5     133.683 134.736 111.381  0.00  0.00    +0.000 OA
ATOM     33  CB  ALA C   5     136.023 134.673 108.983  0.00  0.00    +0.000 C 
ATOM     34  N   ALA C   6     135.684 133.893 111.987  0.00  0.00    +0.000 N 
ATOM     35  H   ALA C   6     136.690 133.869 111.842  0.00  0.00    +0.000 HD
ATOM     36  CA  ALA C   6     135.089 133.065 113.030  0.00  0.00    +0.000 C 
ATOM     37  C   ALA C   6     134.382 133.917 114.072  0.00  0.00    +0.000 C 
ATOM     38  O   ALA C   6     133.266 133.594 114.495  0.00  0.00    +0.000 OA
ATOM     39  CB  ALA C   6     136.158 132.191 113.684  0.00  0.00    +0.000 C 
ATOM     40  N   GLN C   7     135.007 135.023 114.481  0.00  0.00    +0.000 N 
ATOM     41  H   GLN C   7     135.947 135.225 114.149  0.00  0.00    +0.000 HD
ATOM     42  CA  GLN C   7     134.419 135.869 115.510  0.00  0.00    +0.000 C 
ATOM     43  C   GLN C   7     133.131 136.514 115.022  0.00  0.00    +0.000 C 
ATOM     44  O   GLN C   7     132.127 136.528 115.741  0.00  0.00    +0.000 OA
ATOM     45  CB  GLN C   7     135.421 136.932 115.956  0.00  0.00    +0.000 C 
ATOM     46  CG  GLN C   7     134.846 137.937 116.934  0.00  0.00    +0.000 C 
ATOM     47  CD  GLN C   7     134.176 137.274 118.120  0.00  0.00    +0.000 C 
ATOM     48  OE1 GLN C   7     134.686 136.301 118.674  0.00  0.00    +0.000 OA
ATOM     49  NE2 GLN C   7     133.022 137.797 118.514  0.00  0.00    +0.000 N 
ATOM     50 HE21 GLN C   7     132.518 138.376 117.875  0.00  0.00    +0.000 HD
ATOM     51 HE22 GLN C   7     132.535 137.267 119.206  0.00  0.00    +0.000 HD
ATOM     52  N   ILE C   8     133.127 137.041 113.796  0.00  0.00    +0.000 N 
ATOM     53  H   ILE C   8     133.963 137.011 113.217  0.00  0.00    +0.000 HD
ATOM     54  CA  ILE C   8     131.926 137.714 113.315  0.00  0.00    +0.000 C 
ATOM     55  C   ILE C   8     130.798 136.711 113.104  0.00  0.00    +0.000 C 
ATOM     56  O   ILE C   8     129.631 137.002 113.403  0.00  0.00    +0.000 OA
ATOM     57  CB  ILE C   8     132.221 138.529 112.042  0.00  0.00    +0.000 C 
ATOM     58  CG1 ILE C   8     131.021 139.409 111.703  0.00  0.00    +0.000 C 
ATOM     59  CG2 ILE C   8     132.565 137.632 110.866  0.00  0.00    +0.000 C 
ATOM     60  CD1 ILE C   8     130.670 140.395 112.789  0.00  0.00    +0.000 C 
ATOM     61  N   PHE C   9     131.120 135.505 112.627  0.00  0.00    +0.000 N 
ATOM     62  H   PHE C   9     132.081 135.289 112.375  0.00  0.00    +0.000 HD
ATOM     63  CA  PHE C   9     130.074 134.509 112.428  0.00  0.00    +0.000 C 
ATOM     64  C   PHE C   9     129.494 134.053 113.759  0.00  0.00    +0.000 C 
ATOM     65  O   PHE C   9     128.271 134.039 113.942  0.00  0.00    +0.000 OA
ATOM     66  CB  PHE C   9     130.611 133.317 111.639  0.00  0.00    +0.000 C 
ATOM     67  CG  PHE C   9     129.560 132.304 111.297  0.00  0.00    +0.000 A 
ATOM     68  CD1 PHE C   9     128.816 132.427 110.139  0.00  0.00    +0.000 A 
ATOM     69  CD2 PHE C   9     129.304 131.236 112.140  0.00  0.00    +0.000 A 
ATOM     70  CE1 PHE C   9     127.844 131.501 109.824  0.00  0.00    +0.000 A 
ATOM     71  CE2 PHE C   9     128.330 130.310 111.832  0.00  0.00    +0.000 A 
ATOM     72  CZ  PHE C   9     127.601 130.441 110.672  0.00  0.00    +0.000 A 
ATOM     73  N   PHE C  10     130.351 133.679 114.706  0.00  0.00    +0.000 N 
ATOM     74  H   PHE C  10     131.351 133.689 114.526  0.00  0.00    +0.000 HD
ATOM     75  CA  PHE C  10     129.872 133.198 115.994  0.00  0.00    +0.000 C 
ATOM     76  C   PHE C  10     129.467 134.322 116.936  0.00  0.00    +0.000 C 
ATOM     77  O   PHE C  10     129.126 134.046 118.089  0.00  0.00    +0.000 OA
ATOM     78  CB  PHE C  10     130.937 132.318 116.649  0.00  0.00    +0.000 C 
ATOM     79  CG  PHE C  10     131.046 130.954 116.037  0.00  0.00    +0.000 A 
ATOM     80  CD1 PHE C  10     129.921 130.299 115.573  0.00  0.00    +0.000 A 
ATOM     81  CD2 PHE C  10     132.274 130.330 115.915  0.00  0.00    +0.000 A 
ATOM     82  CE1 PHE C  10     130.017 129.046 115.006  0.00  0.00    +0.000 A 
ATOM     83  CE2 PHE C  10     132.374 129.076 115.347  0.00  0.00    +0.000 A 
ATOM     84  CZ  PHE C  10     131.245 128.434 114.893  0.00  0.00    +0.000 A 
ATOM     85  N   SER C  11     129.526 135.577 116.495  0.00  0.00    +0.000 N 
ATOM     86  H   SER C  11     129.946 135.760 115.596  0.00  0.00    +0.000 HD
ATOM     87  CA  SER C  11     128.913 136.670 117.233  0.00  0.00    +0.000 C 
ATOM     88  C   SER C  11     127.566 137.080 116.666  0.00  0.00    +0.000 C 
ATOM     89  O   SER C  11     126.659 137.412 117.436  0.00  0.00    +0.000 OA
ATOM     90  CB  SER C  11     129.840 137.889 117.253  0.00  0.00    +0.000 C 
ATOM     91  OG  SER C  11     129.221 138.985 117.903  0.00  0.00    +0.000 OA
ATOM     92  HG  SER C  11     129.749 139.788 117.840  0.00  0.00    +0.000 HD
ATOM     93  N   LEU C  12     127.408 137.064 115.341  0.00  0.00    +0.000 N 
ATOM     94  H   LEU C  12     128.186 136.840 114.732  0.00  0.00    +0.000 HD
ATOM     95  CA  LEU C  12     126.098 137.336 114.763  0.00  0.00    +0.000 C 
ATOM     96  C   LEU C  12     125.194 136.113 114.823  0.00  0.00    +0.000 C 
ATOM     97  O   LEU C  12     123.974 136.255 114.953  0.00  0.00    +0.000 OA
ATOM     98  CB  LEU C  12     126.246 137.815 113.319  0.00  0.00    +0.000 C 
ATOM     99  CG  LEU C  12     126.179 139.328 113.113  0.00  0.00    +0.000 C 
ATOM    100  CD1 LEU C  12     127.214 140.039 113.961  0.00  0.00    +0.000 C 
ATOM    101  CD2 LEU C  12     126.373 139.673 111.656  0.00  0.00    +0.000 C 
ATOM    102  N   NME C  13     125.773 134.918 114.742  0.00  0.00    +0.000 N 
ATOM    103  H   NME C  13     126.777 134.870 114.610  0.00  0.00    +0.000 HD
ATOM    104  C   NME C  13     125.038 133.678 114.841  0.00  0.00    +0.000 C 
TER 
REMARK  Name = /home/xianyang/aimnet2_score_pipelines/work/L1234-fixed-receptor-eint-20260921/L2/P31645/prepared.pdb
REMARK                            x       y       z     vdW  Elec       q    Type
REMARK                         _______ _______ _______ _____ _____    ______ ____
ATOM      1  CH3 ACE D   1     136.474 120.824 125.029  0.00  0.00    +0.000 C 
ATOM      2  C   ACE D   1     135.165 121.022 124.276  0.00  0.00    +0.000 C 
ATOM      3  O   ACE D   1     135.150 121.115 123.042  0.00  0.00    +0.000 OA
ATOM      4  N   LEU D   2     134.050 121.092 125.005  0.00  0.00    +0.000 N 
ATOM      5  H   LEU D   2     134.101 120.990 126.006  0.00  0.00    +0.000 HD
ATOM      6  CA  LEU D   2     132.754 121.294 124.368  0.00  0.00    +0.000 C 
ATOM      7  C   LEU D   2     132.615 122.687 123.769  0.00  0.00    +0.000 C 
ATOM      8  O   LEU D   2     131.703 122.915 122.970  0.00  0.00    +0.000 OA
ATOM      9  CB  LEU D   2     131.630 121.049 125.371  0.00  0.00    +0.000 C 
ATOM     10  CG  LEU D   2     131.405 119.613 125.836  0.00  0.00    +0.000 C 
ATOM     11  CD1 LEU D   2     130.327 119.568 126.904  0.00  0.00    +0.000 C 
ATOM     12  CD2 LEU D   2     131.031 118.737 124.659  0.00  0.00    +0.000 C 
ATOM     13  N   GLU D   3     133.486 123.622 124.144  0.00  0.00    +0.000 N 
ATOM     14  H   GLU D   3     134.180 123.412 124.841  0.00  0.00    +0.000 HD
ATOM     15  CA  GLU D   3     133.439 124.957 123.566  0.00  0.00    +0.000 C 
ATOM     16  C   GLU D   3     134.180 125.014 122.240  0.00  0.00    +0.000 C 
ATOM     17  O   GLU D   3     133.710 125.650 121.290  0.00  0.00    +0.000 OA
ATOM     18  CB  GLU D   3     134.025 125.969 124.550  0.00  0.00    +0.000 C 
ATOM     19  CG  GLU D   3     134.117 127.385 124.015  0.00  0.00    +0.000 C 
ATOM     20  CD  GLU D   3     134.708 128.346 125.026  0.00  0.00    +0.000 C 
ATOM     21  OE1 GLU D   3     134.877 127.948 126.198  0.00  0.00    +0.000 OA
ATOM     22  OE2 GLU D   3     135.003 129.499 124.650  0.00  0.00    +0.000 OA
ATOM     23  N   GLU D   4     135.335 124.358 122.154  0.00  0.00    +0.000 N 
ATOM     24  H   GLU D   4     135.698 123.883 122.963  0.00  0.00    +0.000 HD
ATOM     25  CA  GLU D   4     136.136 124.375 120.939  0.00  0.00    +0.000 C 
ATOM     26  C   GLU D   4     136.014 123.086 120.135  0.00  0.00    +0.000 C 
ATOM     27  O   GLU D   4     136.873 122.807 119.293  0.00  0.00    +0.000 OA
ATOM     28  CB  GLU D   4     137.599 124.658 121.274  0.00  0.00    +0.000 C 
ATOM     29  CG  GLU D   4     137.797 125.878 122.157  0.00  0.00    +0.000 C 
ATOM     30  CD  GLU D   4     139.024 126.683 121.776  0.00  0.00    +0.000 C 
ATOM     31  OE1 GLU D   4     139.922 126.123 121.114  0.00  0.00    +0.000 OA
ATOM     32  OE2 GLU D   4     139.088 127.876 122.138  0.00  0.00    +0.000 OA
ATOM     33  N   TYR D   5     134.976 122.288 120.379  0.00  0.00    +0.000 N 
ATOM     34  H   TYR D   5     134.427 122.453 121.209  0.00  0.00    +0.000 HD
ATOM     35  CA  TYR D   5     134.731 121.130 119.529  0.00  0.00    +0.000 C 
ATOM     36  C   TYR D   5     133.296 121.100 119.017  0.00  0.00    +0.000 C 
ATOM     37  O   TYR D   5     133.050 120.683 117.881  0.00  0.00    +0.000 OA
ATOM     38  CB  TYR D   5     135.060 119.839 120.276  0.00  0.00    +0.000 C 
ATOM     39  CG  TYR D   5     136.513 119.448 120.169  0.00  0.00    +0.000 A 
ATOM     40  CD1 TYR D   5     137.075 119.129 118.943  0.00  0.00    +0.000 A 
ATOM     41  CD2 TYR D   5     137.325 119.404 121.291  0.00  0.00    +0.000 A 
ATOM     42  CE1 TYR D   5     138.402 118.772 118.839  0.00  0.00    +0.000 A 
ATOM     43  CE2 TYR D   5     138.653 119.050 121.196  0.00  0.00    +0.000 A 
ATOM     44  CZ  TYR D   5     139.186 118.735 119.968  0.00  0.00    +0.000 A 
ATOM     45  OH  TYR D   5     140.509 118.380 119.870  0.00  0.00    +0.000 OA
ATOM     46  HH  TYR D   5     140.990 118.555 120.675  0.00  0.00    +0.000 HD
ATOM     47  N   ALA D   6     132.344 121.535 119.840  0.00  0.00    +0.000 N 
ATOM     48  H   ALA D   6     132.577 121.844 120.773  0.00  0.00    +0.000 HD
ATOM     49  CA  ALA D   6     130.948 121.581 119.421  0.00  0.00    +0.000 C 
ATOM     50  C   ALA D   6     130.630 122.789 118.552  0.00  0.00    +0.000 C 
ATOM     51  O   ALA D   6     129.498 122.905 118.073  0.00  0.00    +0.000 OA
ATOM     52  CB  ALA D   6     130.025 121.572 120.641  0.00  0.00    +0.000 C 
ATOM     53  N   THR D   7     131.592 123.687 118.344  0.00  0.00    +0.000 N 
ATOM     54  H   THR D   7     132.471 123.582 118.829  0.00  0.00    +0.000 HD
ATOM     55  CA  THR D   7     131.427 124.840 117.467  0.00  0.00    +0.000 C 
ATOM     56  C   THR D   7     132.450 124.820 116.336  0.00  0.00    +0.000 C 
ATOM     57  O   THR D   7     132.858 125.870 115.837  0.00  0.00    +0.000 OA
ATOM     58  CB  THR D   7     131.530 126.147 118.254  0.00  0.00    +0.000 C 
ATOM     59  OG1 THR D   7     132.903 126.409 118.570  0.00  0.00    +0.000 OA
ATOM     60  HG1 THR D   7     133.087 126.119 119.482  0.00  0.00    +0.000 HD
ATOM     61  CG2 THR D   7     130.725 126.065 119.542  0.00  0.00    +0.000 C 
ATOM     62  N   GLY D   8     132.870 123.628 115.921  0.00  0.00    +0.000 N 
ATOM     63  H   GLY D   8     132.537 122.805 116.402  0.00  0.00    +0.000 HD
ATOM     64  CA  GLY D   8     133.885 123.487 114.908  0.00  0.00    +0.000 C 
ATOM     65  C   GLY D   8     133.313 123.481 113.508  0.00  0.00    +0.000 C 
ATOM     66  O   GLY D   8     132.588 124.394 113.104  0.00  0.00    +0.000 OA
ATOM     67  N   PRO D   9     133.636 122.444 112.731  0.00  0.00    +0.000 N 
ATOM     68  CA  PRO D   9     133.100 122.349 111.370  0.00  0.00    +0.000 C 
ATOM     69  C   PRO D   9     131.704 121.759 111.301  0.00  0.00    +0.000 C 
ATOM     70  O   PRO D   9     131.109 121.762 110.218  0.00  0.00    +0.000 OA
ATOM     71  CB  PRO D   9     134.116 121.446 110.657  0.00  0.00    +0.000 C 
ATOM     72  CG  PRO D   9     134.821 120.685 111.754  0.00  0.00    +0.000 C 
ATOM     73  CD  PRO D   9     134.444 121.270 113.089  0.00  0.00    +0.000 C 
ATOM     74  N   ALA D  10     131.154 121.275 112.415  0.00  0.00    +0.000 N 
ATOM     75  H   ALA D  10     131.681 121.269 113.270  0.00  0.00    +0.000 HD
ATOM     76  CA  ALA D  10     129.793 120.748 112.403  0.00  0.00    +0.000 C 
ATOM     77  C   ALA D  10     128.775 121.869 112.232  0.00  0.00    +0.000 C 
ATOM     78  O   ALA D  10     127.949 121.843 111.312  0.00  0.00    +0.000 OA
ATOM     79  CB  ALA D  10     129.524 119.961 113.686  0.00  0.00    +0.000 C 
ATOM     80  N   VAL D  11     128.820 122.867 113.118  0.00  0.00    +0.000 N 
ATOM     81  H   VAL D  11     129.497 122.845 113.862  0.00  0.00    +0.000 HD
ATOM     82  CA  VAL D  11     127.881 123.982 113.032  0.00  0.00    +0.000 C 
ATOM     83  C   VAL D  11     128.095 124.759 111.742  0.00  0.00    +0.000 C 
ATOM     84  O   VAL D  11     127.136 125.202 111.096  0.00  0.00    +0.000 OA
ATOM     85  CB  VAL D  11     128.019 124.892 114.266  0.00  0.00    +0.000 C 
ATOM     86  CG1 VAL D  11     127.486 124.193 115.489  0.00  0.00    +0.000 C 
ATOM     87  CG2 VAL D  11     129.466 125.293 114.477  0.00  0.00    +0.000 C 
ATOM     88  N   NME D  12     129.354 124.927 111.338  0.00  0.00    +0.000 N 
ATOM     89  H   NME D  12     130.112 124.534 111.875  0.00  0.00    +0.000 HD
ATOM     90  C   NME D  12     129.636 125.678 110.124  0.00  0.00    +0.000 C 
TER 
REMARK  Name = /home/xianyang/aimnet2_score_pipelines/work/L1234-fixed-receptor-eint-20260921/L2/P31645/prepared.pdb
REMARK                            x       y       z     vdW  Elec       q    Type
REMARK                         _______ _______ _______ _____ _____    ______ ____
ATOM      1  CH3 ACE E   1     138.451 124.445 105.491  0.00  0.00    +0.000 C 
ATOM      2  C   ACE E   1     139.626 125.109 106.195  0.00  0.00    +0.000 C 
ATOM      3  O   ACE E   1     140.751 124.614 106.077  0.00  0.00    +0.000 OA
ATOM      4  N   SER E   2     139.400 126.211 106.913  0.00  0.00    +0.000 N 
ATOM      5  H   SER E   2     138.472 126.602 106.941  0.00  0.00    +0.000 HD
ATOM      6  CA  SER E   2     140.495 126.863 107.621  0.00  0.00    +0.000 C 
ATOM      7  C   SER E   2     140.995 126.009 108.778  0.00  0.00    +0.000 C 
ATOM      8  O   SER E   2     142.153 125.577 108.789  0.00  0.00    +0.000 OA
ATOM      9  CB  SER E   2     140.048 128.234 108.123  0.00  0.00    +0.000 C 
ATOM     10  OG  SER E   2     140.843 128.634 109.221  0.00  0.00    +0.000 OA
ATOM     11  HG  SER E   2     140.682 129.554 109.424  0.00  0.00    +0.000 HD
ATOM     12  N   PHE E   3     140.139 125.753 109.766  0.00  0.00    +0.000 N 
ATOM     13  H   PHE E   3     139.246 126.220 109.788  0.00  0.00    +0.000 HD
ATOM     14  CA  PHE E   3     140.534 124.951 110.915  0.00  0.00    +0.000 C 
ATOM     15  C   PHE E   3     140.046 123.512 110.829  0.00  0.00    +0.000 C 
ATOM     16  O   PHE E   3     140.068 122.801 111.837  0.00  0.00    +0.000 OA
ATOM     17  CB  PHE E   3     140.060 125.593 112.222  0.00  0.00    +0.000 C 
ATOM     18  CG  PHE E   3     138.663 126.133 112.176  0.00  0.00    +0.000 A 
ATOM     19  CD1 PHE E   3     137.577 125.285 112.065  0.00  0.00    +0.000 A 
ATOM     20  CD2 PHE E   3     138.436 127.494 112.285  0.00  0.00    +0.000 A 
ATOM     21  CE1 PHE E   3     136.295 125.787 112.039  0.00  0.00    +0.000 A 
ATOM     22  CE2 PHE E   3     137.157 127.999 112.261  0.00  0.00    +0.000 A 
ATOM     23  CZ  PHE E   3     136.087 127.146 112.139  0.00  0.00    +0.000 A 
ATOM     24  N   LEU E   4     139.605 123.067 109.652  0.00  0.00    +0.000 N 
ATOM     25  H   LEU E   4     139.599 123.694 108.862  0.00  0.00    +0.000 HD
ATOM     26  CA  LEU E   4     139.432 121.638 109.435  0.00  0.00    +0.000 C 
ATOM     27  C   LEU E   4     140.772 120.920 109.381  0.00  0.00    +0.000 C 
ATOM     28  O   LEU E   4     140.821 119.700 109.572  0.00  0.00    +0.000 OA
ATOM     29  CB  LEU E   4     138.649 121.387 108.145  0.00  0.00    +0.000 C 
ATOM     30  CG  LEU E   4     138.107 119.975 107.921  0.00  0.00    +0.000 C 
ATOM     31  CD1 LEU E   4     136.775 119.794 108.628  0.00  0.00    +0.000 C 
ATOM     32  CD2 LEU E   4     137.974 119.680 106.435  0.00  0.00    +0.000 C 
ATOM     33  N   MET E   5     141.856 121.654 109.134  0.00  0.00    +0.000 N 
ATOM     34  H   MET E   5     141.738 122.632 108.917  0.00  0.00    +0.000 HD
ATOM     35  CA  MET E   5     143.198 121.097 109.104  0.00  0.00    +0.000 C 
ATOM     36  C   MET E   5     144.084 121.599 110.235  0.00  0.00    +0.000 C 
ATOM     37  O   MET E   5     145.182 121.063 110.420  0.00  0.00    +0.000 OA
ATOM     38  CB  MET E   5     143.870 121.415 107.760  0.00  0.00    +0.000 C 
ATOM     39  CG  MET E   5     143.927 122.899 107.437  0.00  0.00    +0.000 C 
ATOM     40  SD  MET E   5     144.555 123.230 105.781  0.00  0.00    +0.000 S 
ATOM     41  CE  MET E   5     143.319 122.406 104.780  0.00  0.00    +0.000 C 
ATOM     42  N   SER E   6     143.645 122.602 110.988  0.00  0.00    +0.000 N 
ATOM     43  H   SER E   6     142.701 122.932 110.878  0.00  0.00    +0.000 HD
ATOM     44  CA  SER E   6     144.458 123.120 112.077  0.00  0.00    +0.000 C 
ATOM     45  C   SER E   6     144.495 122.116 113.227  0.00  0.00    +0.000 C 
ATOM     46  O   SER E   6     143.461 121.545 113.588  0.00  0.00    +0.000 OA
ATOM     47  CB  SER E   6     143.909 124.456 112.570  0.00  0.00    +0.000 C 
ATOM     48  OG  SER E   6     142.786 124.263 113.411  0.00  0.00    +0.000 OA
ATOM     49  HG  SER E   6     142.716 123.325 113.657  0.00  0.00    +0.000 HD
ATOM     50  N   PRO E   7     145.660 121.881 113.821  0.00  0.00    +0.000 N 
ATOM     51  CA  PRO E   7     145.756 120.905 114.910  0.00  0.00    +0.000 C 
ATOM     52  C   PRO E   7     145.165 121.458 116.193  0.00  0.00    +0.000 C 
ATOM     53  O   PRO E   7     145.571 122.531 116.666  0.00  0.00    +0.000 OA
ATOM     54  CB  PRO E   7     147.268 120.675 115.043  0.00  0.00    +0.000 C 
ATOM     55  CG  PRO E   7     147.881 121.941 114.554  0.00  0.00    +0.000 C 
ATOM     56  CD  PRO E   7     146.966 122.473 113.482  0.00  0.00    +0.000 C 
ATOM     57  N   PRO E   8     144.196 120.760 116.785  0.00  0.00    +0.000 N 
ATOM     58  CA  PRO E   8     143.625 121.211 118.064  0.00  0.00    +0.000 C 
ATOM     59  C   PRO E   8     144.611 120.994 119.203  0.00  0.00    +0.000 C 
ATOM     60  O   PRO E   8     145.043 119.869 119.465  0.00  0.00    +0.000 OA
ATOM     61  CB  PRO E   8     142.373 120.341 118.219  0.00  0.00    +0.000 C 
ATOM     62  CG  PRO E   8     142.655 119.125 117.404  0.00  0.00    +0.000 C 
ATOM     63  CD  PRO E   8     143.511 119.570 116.254  0.00  0.00    +0.000 C 
ATOM     64  N   GLN E   9     144.963 122.082 119.882  0.00  0.00    +0.000 N 
ATOM     65  H   GLN E   9     144.604 122.970 119.562  0.00  0.00    +0.000 HD
ATOM     66  CA  GLN E   9     145.972 122.103 120.938  0.00  0.00    +0.000 C 
ATOM     67  C   GLN E   9     145.456 122.873 122.146  0.00  0.00    +0.000 C 
ATOM     68  O   GLN E   9     146.092 123.810 122.634  0.00  0.00    +0.000 OA
ATOM     69  CB  GLN E   9     147.283 122.703 120.430  0.00  0.00    +0.000 C 
ATOM     70  CG  GLN E   9     147.906 122.006 119.213  0.00  0.00    +0.000 C 
ATOM     71  CD  GLN E   9     148.346 120.564 119.463  0.00  0.00    +0.000 C 
ATOM     72  OE1 GLN E   9     147.918 119.911 120.415  0.00  0.00    +0.000 OA
ATOM     73  NE2 GLN E   9     149.216 120.064 118.592  0.00  0.00    +0.000 N 
ATOM     74 HE21 GLN E   9     149.488 119.112 118.752  0.00  0.00    +0.000 HD
ATOM     75 HE22 GLN E   9     149.552 120.617 117.827  0.00  0.00    +0.000 HD
ATOM     76  N   LEU E  10     144.268 122.487 122.622  0.00  0.00    +0.000 N 
ATOM     77  H   LEU E  10     143.808 121.728 122.144  0.00  0.00    +0.000 HD
ATOM     78  CA  LEU E  10     143.498 123.230 123.618  0.00  0.00    +0.000 C 
ATOM     79  C   LEU E  10     144.351 123.746 124.773  0.00  0.00    +0.000 C 
ATOM     80  O   LEU E  10     144.499 124.961 124.937  0.00  0.00    +0.000 OA
ATOM     81  CB  LEU E  10     142.373 122.347 124.167  0.00  0.00    +0.000 C 
ATOM     82  CG  LEU E  10     141.100 122.155 123.337  0.00  0.00    +0.000 C 
ATOM     83  CD1 LEU E  10     140.454 123.495 123.049  0.00  0.00    +0.000 C 
ATOM     84  CD2 LEU E  10     141.351 121.375 122.054  0.00  0.00    +0.000 C 
ATOM     85  N   ARG E  11     144.921 122.835 125.561  0.00  0.00    +0.000 N 
ATOM     86  H   ARG E  11     144.766 121.871 125.312  0.00  0.00    +0.000 HD
ATOM     87  CA  ARG E  11     145.959 123.140 126.549  0.00  0.00    +0.000 C 
ATOM     88  C   ARG E  11     145.592 124.347 127.420  0.00  0.00    +0.000 C 
ATOM     89  O   ARG E  11     146.205 125.413 127.350  0.00  0.00    +0.000 OA
ATOM     90  CB  ARG E  11     147.304 123.363 125.849  0.00  0.00    +0.000 C 
ATOM     91  CG  ARG E  11     148.494 123.470 126.792  0.00  0.00    +0.000 C 
ATOM     92  CD  ARG E  11     149.762 123.838 126.042  0.00  0.00    +0.000 C 
ATOM     93  NE  ARG E  11     150.905 123.977 126.939  0.00  0.00    +0.000 N 
ATOM     94  HE  ARG E  11     151.482 123.167 127.087  0.00  0.00    +0.000 HD
ATOM     95  CZ  ARG E  11     151.236 125.107 127.555  0.00  0.00    +0.000 C 
ATOM     96  NH1 ARG E  11     152.293 125.145 128.353  0.00  0.00    +0.000 N 
ATOM     97 HH11 ARG E  11     152.863 124.336 128.483  0.00  0.00    +0.000 HD
ATOM     98 HH12 ARG E  11     152.538 125.999 128.810  0.00  0.00    +0.000 HD
ATOM     99  NH2 ARG E  11     150.508 126.200 127.373  0.00  0.00    +0.000 N 
ATOM    100 HH21 ARG E  11     149.679 126.136 126.817  0.00  0.00    +0.000 HD
ATOM    101 HH22 ARG E  11     150.708 127.038 127.875  0.00  0.00    +0.000 HD
ATOM    102  N   NME E  12     144.556 124.170 128.234  0.00  0.00    +0.000 N 
ATOM    103  H   NME E  12     144.040 123.308 128.194  0.00  0.00    +0.000 HD
ATOM    104  C   NME E  12     144.205 125.187 129.215  0.00  0.00    +0.000 C 
TER 
REMARK  Name = /home/xianyang/aimnet2_score_pipelines/work/L1234-fixed-receptor-eint-20260921/L2/P31645/prepared.pdb
REMARK                            x       y       z     vdW  Elec       q    Type
REMARK                         _______ _______ _______ _____ _____    ______ ____
ATOM      1  CH3 ACE F   1     138.923 111.409 118.850  0.00  0.00    +0.000 C 
ATOM      2  C   ACE F   1     137.565 111.724 119.462  0.00  0.00    +0.000 C 
ATOM      3  O   ACE F   1     136.529 111.622 118.796  0.00  0.00    +0.000 OA
ATOM      4  N   LEU F   2     137.545 112.116 120.738  0.00  0.00    +0.000 N 
ATOM      5  H   LEU F   2     138.398 112.111 121.276  0.00  0.00    +0.000 HD
ATOM      6  CA  LEU F   2     136.289 112.508 121.370  0.00  0.00    +0.000 C 
ATOM      7  C   LEU F   2     135.701 113.744 120.702  0.00  0.00    +0.000 C 
ATOM      8  O   LEU F   2     134.489 113.822 120.479  0.00  0.00    +0.000 OA
ATOM      9  CB  LEU F   2     136.503 112.756 122.863  0.00  0.00    +0.000 C 
ATOM     10  CG  LEU F   2     135.297 113.304 123.629  0.00  0.00    +0.000 C 
ATOM     11  CD1 LEU F   2     134.110 112.367 123.497  0.00  0.00    +0.000 C 
ATOM     12  CD2 LEU F   2     135.643 113.524 125.091  0.00  0.00    +0.000 C 
ATOM     13  N   GLY F   3     136.547 114.719 120.369  0.00  0.00    +0.000 N 
ATOM     14  H   GLY F   3     137.522 114.642 120.610  0.00  0.00    +0.000 HD
ATOM     15  CA  GLY F   3     136.064 115.892 119.662  0.00  0.00    +0.000 C 
ATOM     16  C   GLY F   3     135.575 115.565 118.265  0.00  0.00    +0.000 C 
ATOM     17  O   GLY F   3     134.573 116.119 117.802  0.00  0.00    +0.000 OA
ATOM     18  N   TYR F   4     136.270 114.658 117.575  0.00  0.00    +0.000 N 
ATOM     19  H   TYR F   4     137.079 114.220 117.985  0.00  0.00    +0.000 HD
ATOM     20  CA  TYR F   4     135.810 114.222 116.260  0.00  0.00    +0.000 C 
ATOM     21  C   TYR F   4     134.452 113.539 116.356  0.00  0.00    +0.000 C 
ATOM     22  O   TYR F   4     133.577 113.759 115.513  0.00  0.00    +0.000 OA
ATOM     23  CB  TYR F   4     136.832 113.280 115.622  0.00  0.00    +0.000 C 
ATOM     24  CG  TYR F   4     138.097 113.947 115.124  0.00  0.00    +0.000 A 
ATOM     25  CD1 TYR F   4     138.349 115.290 115.368  0.00  0.00    +0.000 A 
ATOM     26  CD2 TYR F   4     139.041 113.226 114.404  0.00  0.00    +0.000 A 
ATOM     27  CE1 TYR F   4     139.505 115.893 114.914  0.00  0.00    +0.000 A 
ATOM     28  CE2 TYR F   4     140.198 113.822 113.945  0.00  0.00    +0.000 A 
ATOM     29  CZ  TYR F   4     140.425 115.154 114.203  0.00  0.00    +0.000 A 
ATOM     30  OH  TYR F   4     141.577 115.749 113.746  0.00  0.00    +0.000 OA
ATOM     31  HH  TYR F   4     141.494 116.701 113.678  0.00  0.00    +0.000 HD
ATOM     32  N   CYS F   5     134.254 112.713 117.386  0.00  0.00    +0.000 N 
ATOM     33  H   CYS F   5     135.022 112.490 118.011  0.00  0.00    +0.000 HD
ATOM     34  CA  CYS F   5     132.971 112.040 117.561  0.00  0.00    +0.000 C 
ATOM     35  C   CYS F   5     131.872 113.029 117.929  0.00  0.00    +0.000 C 
ATOM     36  O   CYS F   5     130.723 112.876 117.501  0.00  0.00    +0.000 OA
ATOM     37  CB  CYS F   5     133.094 110.950 118.625  0.00  0.00    +0.000 C 
ATOM     38  SG  CYS F   5     131.519 110.309 119.233  0.00  0.00    +0.000 S 
ATOM     39  HG  CYS F   5     131.140 111.381 119.939  0.00  0.00    +0.000 HD
ATOM     40  N   ILE F   6     132.204 114.050 118.723  0.00  0.00    +0.000 N 
ATOM     41  H   ILE F   6     133.133 114.089 119.131  0.00  0.00    +0.000 HD
ATOM     42  CA  ILE F   6     131.226 115.080 119.062  0.00  0.00    +0.000 C 
ATOM     43  C   ILE F   6     130.823 115.858 117.816  0.00  0.00    +0.000 C 
ATOM     44  O   ILE F   6     129.646 116.182 117.619  0.00  0.00    +0.000 OA
ATOM     45  CB  ILE F   6     131.785 116.006 120.158  0.00  0.00    +0.000 C 
ATOM     46  CG1 ILE F   6     131.797 115.282 121.504  0.00  0.00    +0.000 C 
ATOM     47  CG2 ILE F   6     130.975 117.287 120.251  0.00  0.00    +0.000 C 
ATOM     48  CD1 ILE F   6     132.416 116.084 122.619  0.00  0.00    +0.000 C 
ATOM     49  N   GLY F   7     131.791 116.164 116.951  0.00  0.00    +0.000 N 
ATOM     50  H   GLY F   7     132.759 115.967 117.184  0.00  0.00    +0.000 HD
ATOM     51  CA  GLY F   7     131.461 116.802 115.688  0.00  0.00    +0.000 C 
ATOM     52  C   GLY F   7     130.636 115.907 114.784  0.00  0.00    +0.000 C 
ATOM     53  O   GLY F   7     129.728 116.375 114.093  0.00  0.00    +0.000 OA
ATOM     54  N   THR F   8     130.937 114.606 114.779  0.00  0.00    +0.000 N 
ATOM     55  H   THR F   8     131.721 114.283 115.334  0.00  0.00    +0.000 HD
ATOM     56  CA  THR F   8     130.195 113.650 113.965  0.00  0.00    +0.000 C 
ATOM     57  C   THR F   8     128.782 113.428 114.492  0.00  0.00    +0.000 C 
ATOM     58  O   THR F   8     127.901 113.027 113.723  0.00  0.00    +0.000 OA
ATOM     59  CB  THR F   8     130.971 112.328 113.900  0.00  0.00    +0.000 C 
ATOM     60  OG1 THR F   8     132.242 112.556 113.280  0.00  0.00    +0.000 OA
ATOM     61  HG1 THR F   8     132.779 113.088 113.905  0.00  0.00    +0.000 HD
ATOM     62  CG2 THR F   8     130.224 111.276 113.091  0.00  0.00    +0.000 C 
ATOM     63  N   SER F   9     128.541 113.693 115.779  0.00  0.00    +0.000 N 
ATOM     64  H   SER F   9     129.304 113.943 116.394  0.00  0.00    +0.000 HD
ATOM     65  CA  SER F   9     127.174 113.666 116.289  0.00  0.00    +0.000 C 
ATOM     66  C   SER F   9     126.275 114.607 115.499  0.00  0.00    +0.000 C 
ATOM     67  O   SER F   9     125.091 114.315 115.299  0.00  0.00    +0.000 OA
ATOM     68  CB  SER F   9     127.156 114.029 117.773  0.00  0.00    +0.000 C 
ATOM     69  OG  SER F   9     127.467 112.904 118.577  0.00  0.00    +0.000 OA
ATOM     70  HG  SER F   9     128.393 112.645 118.377  0.00  0.00    +0.000 HD
ATOM     71  N   NME F  10     126.815 115.734 115.049  0.00  0.00    +0.000 N 
ATOM     72  H   NME F  10     127.796 115.902 115.233  0.00  0.00    +0.000 HD
ATOM     73  C   NME F  10     126.165 116.561 114.048  0.00  0.00    +0.000 C 
TER 
