REMARK  Name = /home/xianyang/aimnet2_score_pipelines/work/L1234-fixed-receptor-eint-20260921/L1/P51532/prepared.pdb
REMARK                            x       y       z     vdW  Elec       q    Type
REMARK                         _______ _______ _______ _____ _____    ______ ____
ATOM      1  CH3 ACE A   1      -6.149  -1.937  13.046  0.00  0.00    +0.000 C 
ATOM      2  C   ACE A   1      -7.213  -1.032  13.654  0.00  0.00    +0.000 C 
ATOM      3  O   ACE A   1      -6.859  -0.195  14.534  0.00  0.00    +0.000 OA
ATOM      4  N   GLU A   2      -8.491  -1.073  13.183  0.00  0.00    +0.000 N 
ATOM      5  H   GLU A   2      -8.749  -1.733  12.466  0.00  0.00    +0.000 HD
ATOM      6  CA  GLU A   2      -9.407   0.000  13.509  0.00  0.00    +0.000 C 
ATOM      7  C   GLU A   2      -9.656   0.123  15.019  0.00  0.00    +0.000 C 
ATOM      8  O   GLU A   2      -9.886   1.229  15.494  0.00  0.00    +0.000 OA
ATOM      9  CB  GLU A   2     -10.716  -0.202  12.728  0.00  0.00    +0.000 C 
ATOM     10  CG  GLU A   2     -11.554  -1.420  13.158  0.00  0.00    +0.000 C 
ATOM     11  CD  GLU A   2     -13.038  -1.210  13.082  0.00  0.00    +0.000 C 
ATOM     12  OE1 GLU A   2     -13.775  -2.107  13.695  0.00  0.00    +0.000 OA
ATOM     13  OE2 GLU A   2     -13.512  -0.211  12.488  0.00  0.00    +0.000 OA
ATOM     14  N   VAL A   3      -9.511  -0.943  15.783  0.00  0.00    +0.000 N 
ATOM     15  H   VAL A   3      -9.351  -1.836  15.344  0.00  0.00    +0.000 HD
ATOM     16  CA  VAL A   3      -9.739  -0.879  17.220  0.00  0.00    +0.000 C 
ATOM     17  C   VAL A   3      -8.514  -0.349  17.945  0.00  0.00    +0.000 C 
ATOM     18  O   VAL A   3      -8.581  -0.093  19.159  0.00  0.00    +0.000 OA
ATOM     19  CB  VAL A   3     -10.149  -2.257  17.770  0.00  0.00    +0.000 C 
ATOM     20  CG1 VAL A   3     -11.519  -2.670  17.259  0.00  0.00    +0.000 C 
ATOM     21  CG2 VAL A   3      -9.080  -3.334  17.655  0.00  0.00    +0.000 C 
ATOM     22  N   PHE A   4      -7.364  -0.239  17.253  0.00  0.00    +0.000 N 
ATOM     23  H   PHE A   4      -7.372  -0.434  16.260  0.00  0.00    +0.000 HD
ATOM     24  CA  PHE A   4      -6.100   0.100  17.878  0.00  0.00    +0.000 C 
ATOM     25  C   PHE A   4      -5.632   1.495  17.535  0.00  0.00    +0.000 C 
ATOM     26  O   PHE A   4      -4.552   1.895  17.995  0.00  0.00    +0.000 OA
ATOM     27  CB  PHE A   4      -5.007  -0.908  17.524  0.00  0.00    +0.000 C 
ATOM     28  CG  PHE A   4      -5.380  -2.307  17.953  0.00  0.00    +0.000 A 
ATOM     29  CD1 PHE A   4      -5.494  -2.661  19.283  0.00  0.00    +0.000 A 
ATOM     30  CD2 PHE A   4      -5.572  -3.300  17.008  0.00  0.00    +0.000 A 
ATOM     31  CE1 PHE A   4      -5.860  -3.956  19.653  0.00  0.00    +0.000 A 
ATOM     32  CE2 PHE A   4      -5.895  -4.628  17.404  0.00  0.00    +0.000 A 
ATOM     33  CZ  PHE A   4      -6.052  -4.933  18.750  0.00  0.00    +0.000 A 
ATOM     34  N   ILE A   5      -6.416   2.240  16.796  0.00  0.00    +0.000 N 
ATOM     35  H   ILE A   5      -7.276   1.850  16.431  0.00  0.00    +0.000 HD
ATOM     36  CA  ILE A   5      -6.007   3.580  16.445  0.00  0.00    +0.000 C 
ATOM     37  C   ILE A   5      -5.927   4.479  17.676  0.00  0.00    +0.000 C 
ATOM     38  O   ILE A   5      -4.984   5.276  17.851  0.00  0.00    +0.000 OA
ATOM     39  CB  ILE A   5      -6.935   4.141  15.357  0.00  0.00    +0.000 C 
ATOM     40  CG1 ILE A   5      -6.947   3.289  14.092  0.00  0.00    +0.000 C 
ATOM     41  CG2 ILE A   5      -6.588   5.563  15.011  0.00  0.00    +0.000 C 
ATOM     42  CD1 ILE A   5      -5.599   3.026  13.449  0.00  0.00    +0.000 C 
ATOM     43  N   GLN A   6      -7.005   4.406  18.458  0.00  0.00    +0.000 N 
ATOM     44  H   GLN A   6      -7.715   3.713  18.271  0.00  0.00    +0.000 HD
ATOM     45  CA  GLN A   6      -7.214   5.320  19.563  0.00  0.00    +0.000 C 
ATOM     46  C   GLN A   6      -7.623   4.561  20.815  0.00  0.00    +0.000 C 
ATOM     47  O   GLN A   6      -8.700   3.972  20.848  0.00  0.00    +0.000 OA
ATOM     48  CB  GLN A   6      -8.345   6.316  19.211  0.00  0.00    +0.000 C 
ATOM     49  CG  GLN A   6      -8.643   7.373  20.280  0.00  0.00    +0.000 C 
ATOM     50  CD  GLN A   6      -9.751   8.275  19.770  0.00  0.00    +0.000 C 
ATOM     51  OE1 GLN A   6     -10.004   8.358  18.577  0.00  0.00    +0.000 OA
ATOM     52  NE2 GLN A   6     -10.517   8.907  20.648  0.00  0.00    +0.000 N 
ATOM     53 HE21 GLN A   6     -10.469   8.618  21.607  0.00  0.00    +0.000 HD
ATOM     54 HE22 GLN A   6     -11.254   9.480  20.273  0.00  0.00    +0.000 HD
ATOM     55  N   LEU A   7      -6.823   4.603  21.869  0.00  0.00    +0.000 N 
ATOM     56  H   LEU A   7      -5.951   5.128  21.799  0.00  0.00    +0.000 HD
ATOM     57  CA  LEU A   7      -7.218   4.054  23.168  0.00  0.00    +0.000 C 
ATOM     58  C   LEU A   7      -8.492   4.707  23.750  0.00  0.00    +0.000 C 
ATOM     59  O   LEU A   7      -8.942   5.773  23.341  0.00  0.00    +0.000 OA
ATOM     60  CB  LEU A   7      -6.052   4.032  24.169  0.00  0.00    +0.000 C 
ATOM     61  CG  LEU A   7      -5.308   2.695  24.388  0.00  0.00    +0.000 C 
ATOM     62  CD1 LEU A   7      -4.087   2.942  25.248  0.00  0.00    +0.000 C 
ATOM     63  CD2 LEU A   7      -6.207   1.602  25.016  0.00  0.00    +0.000 C 
ATOM     64  N   PRO A   8      -9.339   3.986  24.510  0.00  0.00    +0.000 N 
ATOM     65  CA  PRO A   8     -10.368   4.655  25.323  0.00  0.00    +0.000 C 
ATOM     66  C   PRO A   8      -9.675   5.486  26.403  0.00  0.00    +0.000 C 
ATOM     67  O   PRO A   8      -8.531   5.230  26.780  0.00  0.00    +0.000 OA
ATOM     68  CB  PRO A   8     -11.115   3.487  25.971  0.00  0.00    +0.000 C 
ATOM     69  CG  PRO A   8     -11.008   2.442  24.919  0.00  0.00    +0.000 C 
ATOM     70  CD  PRO A   8      -9.553   2.540  24.488  0.00  0.00    +0.000 C 
ATOM     71  N   SER A   9     -10.468   6.414  26.970  0.00  0.00    +0.000 N 
ATOM     72  H   SER A   9     -11.427   6.435  26.654  0.00  0.00    +0.000 HD
ATOM     73  CA  SER A   9     -10.054   7.267  28.079  0.00  0.00    +0.000 C 
ATOM     74  C   SER A   9      -9.821   6.430  29.333  0.00  0.00    +0.000 C 
ATOM     75  O   SER A   9     -10.453   5.384  29.512  0.00  0.00    +0.000 OA
ATOM     76  CB  SER A   9     -11.083   8.342  28.359  0.00  0.00    +0.000 C 
ATOM     77  OG  SER A   9     -12.375   7.766  28.546  0.00  0.00    +0.000 OA
ATOM     78  HG  SER A   9     -12.768   7.517  27.679  0.00  0.00    +0.000 HD
ATOM     79  N   ARG A  10      -8.992   6.978  30.244  0.00  0.00    +0.000 N 
ATOM     80  H   ARG A  10      -8.431   7.768  29.961  0.00  0.00    +0.000 HD
ATOM     81  CA  ARG A  10      -8.822   6.453  31.593  0.00  0.00    +0.000 C 
ATOM     82  C   ARG A  10     -10.147   6.593  32.364  0.00  0.00    +0.000 C 
ATOM     83  O   ARG A  10     -10.325   5.930  33.374  0.00  0.00    +0.000 OA
ATOM     84  CB  ARG A  10      -7.542   7.004  32.260  0.00  0.00    +0.000 C 
ATOM     85  CG  ARG A  10      -7.122   6.322  33.563  0.00  0.00    +0.000 C 
ATOM     86  CD  ARG A  10      -5.714   6.547  34.140  0.00  0.00    +0.000 C 
ATOM     87  NE  ARG A  10      -5.434   5.612  35.244  0.00  0.00    +0.000 N 
ATOM     88  HE  ARG A  10      -6.228   5.122  35.625  0.00  0.00    +0.000 HD
ATOM     89  CZ  ARG A  10      -4.234   5.294  35.762  0.00  0.00    +0.000 C 
ATOM     90  NH1 ARG A  10      -3.114   5.852  35.317  0.00  0.00    +0.000 N 
ATOM     91 HH11 ARG A  10      -3.184   6.535  34.585  0.00  0.00    +0.000 HD
ATOM     92 HH12 ARG A  10      -2.229   5.583  35.707  0.00  0.00    +0.000 HD
ATOM     93  NH2 ARG A  10      -4.168   4.422  36.759  0.00  0.00    +0.000 N 
ATOM     94 HH21 ARG A  10      -5.012   3.981  37.097  0.00  0.00    +0.000 HD
ATOM     95 HH22 ARG A  10      -3.273   4.110  37.089  0.00  0.00    +0.000 HD
ATOM     96  N   LYS A  11     -11.114   7.324  31.780  0.00  0.00    +0.000 N 
ATOM     97  H   LYS A  11     -10.895   7.707  30.878  0.00  0.00    +0.000 HD
ATOM     98  CA  LYS A  11     -12.391   7.703  32.372  0.00  0.00    +0.000 C 
ATOM     99  C   LYS A  11     -13.565   6.886  31.813  0.00  0.00    +0.000 C 
ATOM    100  O   LYS A  11     -14.594   6.775  32.482  0.00  0.00    +0.000 OA
ATOM    101  CB  LYS A  11     -12.592   9.207  32.162  0.00  0.00    +0.000 C 
ATOM    102  CG  LYS A  11     -13.828   9.837  32.792  0.00  0.00    +0.000 C 
ATOM    103  CD  LYS A  11     -13.761  11.352  32.750  0.00  0.00    +0.000 C 
ATOM    104  CE  LYS A  11     -15.014  11.989  32.187  0.00  0.00    +0.000 C 
ATOM    105  NZ  LYS A  11     -14.837  13.434  31.920  0.00  0.00    +0.000 N 
ATOM    106  HZ1 LYS A  11     -14.094  13.590  31.251  0.00  0.00    +0.000 HD
ATOM    107  HZ2 LYS A  11     -15.688  13.831  31.541  0.00  0.00    +0.000 HD
ATOM    108  HZ3 LYS A  11     -14.610  13.922  32.778  0.00  0.00    +0.000 HD
ATOM    109  N   GLU A  12     -13.454   6.325  30.593  0.00  0.00    +0.000 N 
ATOM    110  H   GLU A  12     -12.664   6.534  30.000  0.00  0.00    +0.000 HD
ATOM    111  CA  GLU A  12     -14.501   5.430  30.101  0.00  0.00    +0.000 C 
ATOM    112  C   GLU A  12     -14.116   3.997  30.470  0.00  0.00    +0.000 C 
ATOM    113  O   GLU A  12     -14.963   3.116  30.668  0.00  0.00    +0.000 OA
ATOM    114  CB  GLU A  12     -14.791   5.640  28.602  0.00  0.00    +0.000 C 
ATOM    115  CG  GLU A  12     -14.423   4.471  27.685  0.00  0.00    +0.000 C 
ATOM    116  CD  GLU A  12     -14.758   4.636  26.204  0.00  0.00    +0.000 C 
ATOM    117  OE1 GLU A  12     -15.824   4.131  25.782  0.00  0.00    +0.000 OA
ATOM    118  OE2 GLU A  12     -13.924   5.246  25.453  0.00  0.00    +0.000 OA
ATOM    119  N   LEU A  13     -12.808   3.809  30.619  0.00  0.00    +0.000 N 
ATOM    120  H   LEU A  13     -12.199   4.582  30.389  0.00  0.00    +0.000 HD
ATOM    121  CA  LEU A  13     -12.158   2.545  30.876  0.00  0.00    +0.000 C 
ATOM    122  C   LEU A  13     -11.000   2.778  31.849  0.00  0.00    +0.000 C 
ATOM    123  O   LEU A  13      -9.844   2.482  31.548  0.00  0.00    +0.000 OA
ATOM    124  CB  LEU A  13     -11.658   2.038  29.515  0.00  0.00    +0.000 C 
ATOM    125  CG  LEU A  13     -11.354   0.547  29.406  0.00  0.00    +0.000 C 
ATOM    126  CD1 LEU A  13     -12.633  -0.271  29.474  0.00  0.00    +0.000 C 
ATOM    127  CD2 LEU A  13     -10.597   0.239  28.110  0.00  0.00    +0.000 C 
ATOM    128  N   PRO A  14     -11.256   3.249  33.104  0.00  0.00    +0.000 N 
ATOM    129  CA  PRO A  14     -10.166   3.391  34.083  0.00  0.00    +0.000 C 
ATOM    130  C   PRO A  14      -9.436   2.089  34.364  0.00  0.00    +0.000 C 
ATOM    131  O   PRO A  14      -8.222   2.089  34.609  0.00  0.00    +0.000 OA
ATOM    132  CB  PRO A  14     -10.881   3.838  35.364  0.00  0.00    +0.000 C 
ATOM    133  CG  PRO A  14     -12.319   3.418  35.135  0.00  0.00    +0.000 C 
ATOM    134  CD  PRO A  14     -12.572   3.605  33.650  0.00  0.00    +0.000 C 
ATOM    135  N   GLU A  15     -10.155   0.976  34.236  0.00  0.00    +0.000 N 
ATOM    136  H   GLU A  15     -11.150   1.038  34.009  0.00  0.00    +0.000 HD
ATOM    137  CA  GLU A  15      -9.606  -0.348  34.468  0.00  0.00    +0.000 C 
ATOM    138  C   GLU A  15      -8.424  -0.677  33.532  0.00  0.00    +0.000 C 
ATOM    139  O   GLU A  15      -7.502  -1.396  33.903  0.00  0.00    +0.000 OA
ATOM    140  CB  GLU A  15     -10.687  -1.428  34.453  0.00  0.00    +0.000 C 
ATOM    141  CG  GLU A  15     -11.365  -1.595  33.111  0.00  0.00    +0.000 C 
ATOM    142  CD  GLU A  15     -12.757  -0.997  33.086  0.00  0.00    +0.000 C 
ATOM    143  OE1 GLU A  15     -12.921   0.162  33.555  0.00  0.00    +0.000 OA
ATOM    144  OE2 GLU A  15     -13.667  -1.678  32.580  0.00  0.00    +0.000 OA
ATOM    145  N   TYR A  16      -8.437  -0.154  32.292  0.00  0.00    +0.000 N 
ATOM    146  H   TYR A  16      -9.192   0.470  32.030  0.00  0.00    +0.000 HD
ATOM    147  CA  TYR A  16      -7.376  -0.451  31.317  0.00  0.00    +0.000 C 
ATOM    148  C   TYR A  16      -6.003  -0.043  31.890  0.00  0.00    +0.000 C 
ATOM    149  O   TYR A  16      -4.976  -0.700  31.782  0.00  0.00    +0.000 OA
ATOM    150  CB  TYR A  16      -7.674   0.156  29.936  0.00  0.00    +0.000 C 
ATOM    151  CG  TYR A  16      -6.704  -0.232  28.828  0.00  0.00    +0.000 A 
ATOM    152  CD1 TYR A  16      -5.463   0.384  28.656  0.00  0.00    +0.000 A 
ATOM    153  CD2 TYR A  16      -6.958  -1.355  28.053  0.00  0.00    +0.000 A 
ATOM    154  CE1 TYR A  16      -4.582  -0.034  27.665  0.00  0.00    +0.000 A 
ATOM    155  CE2 TYR A  16      -6.104  -1.765  27.030  0.00  0.00    +0.000 A 
ATOM    156  CZ  TYR A  16      -4.886  -1.121  26.853  0.00  0.00    +0.000 A 
ATOM    157  OH  TYR A  16      -3.985  -1.492  25.871  0.00  0.00    +0.000 OA
ATOM    158  HH  TYR A  16      -3.402  -0.773  25.620  0.00  0.00    +0.000 HD
ATOM    159  N   TYR A  17      -6.006   1.148  32.431  0.00  0.00    +0.000 N 
ATOM    160  H   TYR A  17      -6.893   1.619  32.539  0.00  0.00    +0.000 HD
ATOM    161  CA  TYR A  17      -4.788   1.800  32.891  0.00  0.00    +0.000 C 
ATOM    162  C   TYR A  17      -4.263   1.205  34.207  0.00  0.00    +0.000 C 
ATOM    163  O   TYR A  17      -3.076   1.295  34.529  0.00  0.00    +0.000 OA
ATOM    164  CB  TYR A  17      -5.131   3.288  32.911  0.00  0.00    +0.000 C 
ATOM    165  CG  TYR A  17      -5.383   3.875  31.548  0.00  0.00    +0.000 A 
ATOM    166  CD1 TYR A  17      -4.357   4.439  30.807  0.00  0.00    +0.000 A 
ATOM    167  CD2 TYR A  17      -6.649   3.859  30.990  0.00  0.00    +0.000 A 
ATOM    168  CE1 TYR A  17      -4.587   4.958  29.539  0.00  0.00    +0.000 A 
ATOM    169  CE2 TYR A  17      -6.886   4.330  29.710  0.00  0.00    +0.000 A 
ATOM    170  CZ  TYR A  17      -5.857   4.904  28.987  0.00  0.00    +0.000 A 
ATOM    171  OH  TYR A  17      -6.204   5.368  27.751  0.00  0.00    +0.000 OA
ATOM    172  HH  TYR A  17      -5.457   5.559  27.176  0.00  0.00    +0.000 HD
ATOM    173  N   NME A  18      -5.149   0.560  34.968  0.00  0.00    +0.000 N 
ATOM    174  H   NME A  18      -6.089   0.408  34.622  0.00  0.00    +0.000 HD
ATOM    175  C   NME A  18      -4.697  -0.121  36.172  0.00  0.00    +0.000 C 
TER 
REMARK  Name = /home/xianyang/aimnet2_score_pipelines/work/L1234-fixed-receptor-eint-20260921/L1/P51532/prepared.pdb
REMARK                            x       y       z     vdW  Elec       q    Type
REMARK                         _______ _______ _______ _____ _____    ______ ____
ATOM      1  CH3 ACE B   1       2.686   1.580  29.274  0.00  0.00    +0.000 C 
ATOM      2  C   ACE B   1       1.690   1.542  28.119  0.00  0.00    +0.000 C 
ATOM      3  O   ACE B   1       1.917   0.859  27.102  0.00  0.00    +0.000 OA
ATOM      4  N   PRO B   2       0.558   2.249  28.238  0.00  0.00    +0.000 N 
ATOM      5  CA  PRO B   2      -0.418   2.240  27.143  0.00  0.00    +0.000 C 
ATOM      6  C   PRO B   2       0.091   2.916  25.882  0.00  0.00    +0.000 C 
ATOM      7  O   PRO B   2       0.817   3.914  25.960  0.00  0.00    +0.000 OA
ATOM      8  CB  PRO B   2      -1.603   3.028  27.707  0.00  0.00    +0.000 C 
ATOM      9  CG  PRO B   2      -1.433   2.882  29.226  0.00  0.00    +0.000 C 
ATOM     10  CD  PRO B   2       0.072   2.908  29.478  0.00  0.00    +0.000 C 
ATOM     11  N   VAL B   3      -0.361   2.392  24.734  0.00  0.00    +0.000 N 
ATOM     12  H   VAL B   3      -0.958   1.579  24.728  0.00  0.00    +0.000 HD
ATOM     13  CA  VAL B   3       0.032   2.966  23.453  0.00  0.00    +0.000 C 
ATOM     14  C   VAL B   3      -0.997   2.561  22.401  0.00  0.00    +0.000 C 
ATOM     15  O   VAL B   3      -1.586   1.442  22.451  0.00  0.00    +0.000 OA
ATOM     16  CB  VAL B   3       1.427   2.512  23.026  0.00  0.00    +0.000 C 
ATOM     17  CG1 VAL B   3       1.539   1.018  23.069  0.00  0.00    +0.000 C 
ATOM     18  CG2 VAL B   3       1.848   3.036  21.679  0.00  0.00    +0.000 C 
ATOM     19  N   ASP B   4      -1.245   3.477  21.479  0.00  0.00    +0.000 N 
ATOM     20  H   ASP B   4      -0.766   4.369  21.464  0.00  0.00    +0.000 HD
ATOM     21  CA  ASP B   4      -2.123   3.184  20.345  0.00  0.00    +0.000 C 
ATOM     22  C   ASP B   4      -1.406   3.628  19.071  0.00  0.00    +0.000 C 
ATOM     23  O   ASP B   4      -0.298   4.187  19.096  0.00  0.00    +0.000 OA
ATOM     24  CB  ASP B   4      -3.512   3.849  20.539  0.00  0.00    +0.000 C 
ATOM     25  CG  ASP B   4      -3.432   5.347  20.833  0.00  0.00    +0.000 C 
ATOM     26  OD1 ASP B   4      -2.382   5.974  20.485  0.00  0.00    +0.000 OA
ATOM     27  OD2 ASP B   4      -4.440   5.977  21.347  0.00  0.00    +0.000 OA
ATOM     28  N   PHE B   5      -1.982   3.411  17.895  0.00  0.00    +0.000 N 
ATOM     29  H   PHE B   5      -2.884   2.946  17.858  0.00  0.00    +0.000 HD
ATOM     30  CA  PHE B   5      -1.288   3.793  16.655  0.00  0.00    +0.000 C 
ATOM     31  C   PHE B   5      -1.147   5.285  16.524  0.00  0.00    +0.000 C 
ATOM     32  O   PHE B   5      -0.171   5.699  15.927  0.00  0.00    +0.000 OA
ATOM     33  CB  PHE B   5      -1.921   3.153  15.411  0.00  0.00    +0.000 C 
ATOM     34  CG  PHE B   5      -1.607   1.691  15.247  0.00  0.00    +0.000 A 
ATOM     35  CD1 PHE B   5      -0.304   1.342  14.892  0.00  0.00    +0.000 A 
ATOM     36  CD2 PHE B   5      -2.567   0.686  15.379  0.00  0.00    +0.000 A 
ATOM     37  CE1 PHE B   5       0.080   0.022  14.708  0.00  0.00    +0.000 A 
ATOM     38  CE2 PHE B   5      -2.147  -0.655  15.270  0.00  0.00    +0.000 A 
ATOM     39  CZ  PHE B   5      -0.863  -0.971  14.884  0.00  0.00    +0.000 A 
ATOM     40  N   LYS B   6      -2.098   6.062  17.020  0.00  0.00    +0.000 N 
ATOM     41  H   LYS B   6      -2.868   5.668  17.552  0.00  0.00    +0.000 HD
ATOM     42  CA  LYS B   6      -1.846   7.499  17.010  0.00  0.00    +0.000 C 
ATOM     43  C   LYS B   6      -0.580   7.856  17.788  0.00  0.00    +0.000 C 
ATOM     44  O   LYS B   6       0.199   8.722  17.316  0.00  0.00    +0.000 OA
ATOM     45  CB  LYS B   6      -3.057   8.221  17.602  0.00  0.00    +0.000 C 
ATOM     46  CG  LYS B   6      -4.219   8.269  16.613  0.00  0.00    +0.000 C 
ATOM     47  CD  LYS B   6      -5.474   8.964  17.109  0.00  0.00    +0.000 C 
ATOM     48  CE  LYS B   6      -5.279   9.940  18.254  0.00  0.00    +0.000 C 
ATOM     49  NZ  LYS B   6      -6.568  10.387  18.843  0.00  0.00    +0.000 N 
ATOM     50  HZ1 LYS B   6      -6.428  10.681  19.804  0.00  0.00    +0.000 HD
ATOM     51  HZ2 LYS B   6      -6.962  11.152  18.308  0.00  0.00    +0.000 HD
ATOM     52  HZ3 LYS B   6      -7.237   9.623  18.835  0.00  0.00    +0.000 HD
ATOM     53  N   NME B   7      -0.362   7.258  18.945  0.00  0.00    +0.000 N 
ATOM     54  H   NME B   7      -1.040   6.597  19.325  0.00  0.00    +0.000 HD
ATOM     55  C   NME B   7       0.863   7.559  19.695  0.00  0.00    +0.000 C 
TER 
REMARK  Name = /home/xianyang/aimnet2_score_pipelines/work/L1234-fixed-receptor-eint-20260921/L1/P51532/prepared.pdb
REMARK                            x       y       z     vdW  Elec       q    Type
REMARK                         _______ _______ _______ _____ _____    ______ ____
ATOM      1  CH3 ACE C   1       4.610  -5.401  19.815  0.00  0.00    +0.000 C 
ATOM      2  C   ACE C   1       4.133  -5.144  21.232  0.00  0.00    +0.000 C 
ATOM      3  O   ACE C   1       3.347  -6.000  21.745  0.00  0.00    +0.000 OA
ATOM      4  N   LEU C   2       4.512  -4.051  21.874  0.00  0.00    +0.000 N 
ATOM      5  H   LEU C   2       5.206  -3.452  21.456  0.00  0.00    +0.000 HD
ATOM      6  CA  LEU C   2       3.935  -3.680  23.155  0.00  0.00    +0.000 C 
ATOM      7  C   LEU C   2       2.433  -3.358  23.037  0.00  0.00    +0.000 C 
ATOM      8  O   LEU C   2       1.646  -3.769  23.922  0.00  0.00    +0.000 OA
ATOM      9  CB  LEU C   2       4.767  -2.527  23.713  0.00  0.00    +0.000 C 
ATOM     10  CG  LEU C   2       4.207  -1.970  25.010  0.00  0.00    +0.000 C 
ATOM     11  CD1 LEU C   2       4.248  -2.981  26.160  0.00  0.00    +0.000 C 
ATOM     12  CD2 LEU C   2       5.082  -0.815  25.430  0.00  0.00    +0.000 C 
ATOM     13  N   LEU C   3       2.033  -2.586  22.039  0.00  0.00    +0.000 N 
ATOM     14  H   LEU C   3       2.712  -2.204  21.401  0.00  0.00    +0.000 HD
ATOM     15  CA  LEU C   3       0.604  -2.353  21.808  0.00  0.00    +0.000 C 
ATOM     16  C   LEU C   3      -0.147  -3.703  21.780  0.00  0.00    +0.000 C 
ATOM     17  O   LEU C   3      -1.187  -3.878  22.460  0.00  0.00    +0.000 OA
ATOM     18  CB  LEU C   3       0.433  -1.590  20.492  0.00  0.00    +0.000 C 
ATOM     19  CG  LEU C   3      -0.968  -1.129  20.119  0.00  0.00    +0.000 C 
ATOM     20  CD1 LEU C   3      -0.899  -0.041  19.053  0.00  0.00    +0.000 C 
ATOM     21  CD2 LEU C   3      -1.842  -2.262  19.574  0.00  0.00    +0.000 C 
ATOM     22  N   CYS C   4       0.383  -4.644  21.031  0.00  0.00    +0.000 N 
ATOM     23  H   CYS C   4       1.244  -4.471  20.544  0.00  0.00    +0.000 HD
ATOM     24  CA  CYS C   4      -0.283  -5.934  20.875  0.00  0.00    +0.000 C 
ATOM     25  C   CYS C   4      -0.240  -6.717  22.190  0.00  0.00    +0.000 C 
ATOM     26  O   CYS C   4      -1.257  -7.336  22.575  0.00  0.00    +0.000 OA
ATOM     27  CB  CYS C   4       0.342  -6.693  19.711  0.00  0.00    +0.000 C 
ATOM     28  SG  CYS C   4       0.085  -5.920  18.107  0.00  0.00    +0.000 S 
ATOM     29  HG  CYS C   4       0.795  -4.810  18.315  0.00  0.00    +0.000 HD
ATOM     30  N   GLN C   5       0.913  -6.754  22.880  0.00  0.00    +0.000 N 
ATOM     31  H   GLN C   5       1.750  -6.325  22.505  0.00  0.00    +0.000 HD
ATOM     32  CA  GLN C   5       0.956  -7.375  24.201  0.00  0.00    +0.000 C 
ATOM     33  C   GLN C   5      -0.083  -6.799  25.160  0.00  0.00    +0.000 C 
ATOM     34  O   GLN C   5      -0.732  -7.598  25.891  0.00  0.00    +0.000 OA
ATOM     35  CB  GLN C   5       2.377  -7.228  24.770  0.00  0.00    +0.000 C 
ATOM     36  CG  GLN C   5       2.494  -7.820  26.181  0.00  0.00    +0.000 C 
ATOM     37  CD  GLN C   5       3.678  -7.228  26.922  0.00  0.00    +0.000 C 
ATOM     38  OE1 GLN C   5       4.832  -7.439  26.549  0.00  0.00    +0.000 OA
ATOM     39  NE2 GLN C   5       3.410  -6.384  27.913  0.00  0.00    +0.000 N 
ATOM     40 HE21 GLN C   5       2.465  -6.121  28.126  0.00  0.00    +0.000 HD
ATOM     41 HE22 GLN C   5       4.204  -5.933  28.333  0.00  0.00    +0.000 HD
ATOM     42  N   ASN C   6      -0.274  -5.505  25.159  0.00  0.00    +0.000 N 
ATOM     43  H   ASN C   6       0.311  -4.928  24.563  0.00  0.00    +0.000 HD
ATOM     44  CA  ASN C   6      -1.202  -4.848  26.043  0.00  0.00    +0.000 C 
ATOM     45  C   ASN C   6      -2.625  -5.320  25.726  0.00  0.00    +0.000 C 
ATOM     46  O   ASN C   6      -3.439  -5.607  26.647  0.00  0.00    +0.000 OA
ATOM     47  CB  ASN C   6      -1.168  -3.319  25.912  0.00  0.00    +0.000 C 
ATOM     48  CG  ASN C   6       0.101  -2.697  26.483  0.00  0.00    +0.000 C 
ATOM     49  OD1 ASN C   6       0.843  -3.324  27.275  0.00  0.00    +0.000 OA
ATOM     50  ND2 ASN C   6       0.358  -1.463  26.072  0.00  0.00    +0.000 N 
ATOM     51 HD21 ASN C   6       1.261  -1.429  25.628  0.00  0.00    +0.000 HD
ATOM     52 HD22 ASN C   6       0.421  -0.797  26.827  0.00  0.00    +0.000 HD
ATOM     53  N   ALA C   7      -2.967  -5.400  24.430  0.00  0.00    +0.000 N 
ATOM     54  H   ALA C   7      -2.302  -5.102  23.724  0.00  0.00    +0.000 HD
ATOM     55  CA  ALA C   7      -4.267  -5.924  24.008  0.00  0.00    +0.000 C 
ATOM     56  C   ALA C   7      -4.449  -7.325  24.568  0.00  0.00    +0.000 C 
ATOM     57  O   ALA C   7      -5.566  -7.689  24.952  0.00  0.00    +0.000 OA
ATOM     58  CB  ALA C   7      -4.391  -5.860  22.497  0.00  0.00    +0.000 C 
ATOM     59  N   GLN C   8      -3.431  -8.129  24.437  0.00  0.00    +0.000 N 
ATOM     60  H   GLN C   8      -2.591  -7.785  23.981  0.00  0.00    +0.000 HD
ATOM     61  CA  GLN C   8      -3.463  -9.533  24.886  0.00  0.00    +0.000 C 
ATOM     62  C   GLN C   8      -3.599  -9.620  26.417  0.00  0.00    +0.000 C 
ATOM     63  O   GLN C   8      -4.257 -10.512  26.984  0.00  0.00    +0.000 OA
ATOM     64  CB  GLN C   8      -2.275 -10.351  24.373  0.00  0.00    +0.000 C 
ATOM     65  CG  GLN C   8      -2.367 -10.456  22.866  0.00  0.00    +0.000 C 
ATOM     66  CD  GLN C   8      -1.071 -10.709  22.146  0.00  0.00    +0.000 C 
ATOM     67  OE1 GLN C   8      -0.851 -10.197  21.039  0.00  0.00    +0.000 OA
ATOM     68  NE2 GLN C   8      -0.159 -11.444  22.767  0.00  0.00    +0.000 N 
ATOM     69 HE21 GLN C   8      -0.363 -11.857  23.657  0.00  0.00    +0.000 HD
ATOM     70 HE22 GLN C   8       0.693 -11.606  22.262  0.00  0.00    +0.000 HD
ATOM     71  N   THR C   9      -3.018  -8.688  27.142  0.00  0.00    +0.000 N 
ATOM     72  H   THR C   9      -2.362  -8.054  26.698  0.00  0.00    +0.000 HD
ATOM     73  CA  THR C   9      -3.147  -8.664  28.608  0.00  0.00    +0.000 C 
ATOM     74  C   THR C   9      -4.572  -8.320  29.025  0.00  0.00    +0.000 C 
ATOM     75  O   THR C   9      -5.098  -8.888  29.993  0.00  0.00    +0.000 OA
ATOM     76  CB  THR C   9      -2.139  -7.672  29.225  0.00  0.00    +0.000 C 
ATOM     77  OG1 THR C   9      -0.810  -8.048  28.831  0.00  0.00    +0.000 OA
ATOM     78  HG1 THR C   9      -0.223  -7.349  29.105  0.00  0.00    +0.000 HD
ATOM     79  CG2 THR C   9      -2.231  -7.650  30.742  0.00  0.00    +0.000 C 
ATOM     80  N   PHE C  10      -5.187  -7.348  28.365  0.00  0.00    +0.000 N 
ATOM     81  H   PHE C  10      -4.685  -6.878  27.621  0.00  0.00    +0.000 HD
ATOM     82  CA  PHE C  10      -6.444  -6.787  28.828  0.00  0.00    +0.000 C 
ATOM     83  C   PHE C  10      -7.638  -7.618  28.373  0.00  0.00    +0.000 C 
ATOM     84  O   PHE C  10      -8.631  -7.695  29.120  0.00  0.00    +0.000 OA
ATOM     85  CB  PHE C  10      -6.616  -5.348  28.343  0.00  0.00    +0.000 C 
ATOM     86  CG  PHE C  10      -7.833  -4.658  28.876  0.00  0.00    +0.000 A 
ATOM     87  CD1 PHE C  10      -7.905  -4.243  30.202  0.00  0.00    +0.000 A 
ATOM     88  CD2 PHE C  10      -8.892  -4.402  28.037  0.00  0.00    +0.000 A 
ATOM     89  CE1 PHE C  10      -9.046  -3.622  30.686  0.00  0.00    +0.000 A 
ATOM     90  CE2 PHE C  10     -10.026  -3.786  28.524  0.00  0.00    +0.000 A 
ATOM     91  CZ  PHE C  10     -10.107  -3.407  29.848  0.00  0.00    +0.000 A 
ATOM     92  N   ASN C  11      -7.560  -8.208  27.196  0.00  0.00    +0.000 N 
ATOM     93  H   ASN C  11      -6.672  -8.192  26.711  0.00  0.00    +0.000 HD
ATOM     94  CA  ASN C  11      -8.649  -8.950  26.592  0.00  0.00    +0.000 C 
ATOM     95  C   ASN C  11      -8.442 -10.437  26.723  0.00  0.00    +0.000 C 
ATOM     96  O   ASN C  11      -7.362 -10.923  26.869  0.00  0.00    +0.000 OA
ATOM     97  CB  ASN C  11      -8.679  -8.566  25.113  0.00  0.00    +0.000 C 
ATOM     98  CG  ASN C  11      -9.082  -7.145  24.907  0.00  0.00    +0.000 C 
ATOM     99  OD1 ASN C  11     -10.232  -6.754  25.022  0.00  0.00    +0.000 OA
ATOM    100  ND2 ASN C  11      -8.040  -6.323  24.733  0.00  0.00    +0.000 N 
ATOM    101 HD21 ASN C  11      -7.109  -6.722  24.768  0.00  0.00    +0.000 HD
ATOM    102 HD22 ASN C  11      -8.234  -5.351  24.607  0.00  0.00    +0.000 HD
ATOM    103  N   LEU C  12      -9.539 -11.184  26.581  0.00  0.00    +0.000 N 
ATOM    104  H   LEU C  12     -10.422 -10.737  26.399  0.00  0.00    +0.000 HD
ATOM    105  CA  LEU C  12      -9.492 -12.638  26.760  0.00  0.00    +0.000 C 
ATOM    106  C   LEU C  12      -8.932 -13.331  25.515  0.00  0.00    +0.000 C 
ATOM    107  O   LEU C  12      -9.169 -12.902  24.373  0.00  0.00    +0.000 OA
ATOM    108  CB  LEU C  12     -10.890 -13.179  27.097  0.00  0.00    +0.000 C 
ATOM    109  CG  LEU C  12     -11.524 -12.699  28.411  0.00  0.00    +0.000 C 
ATOM    110  CD1 LEU C  12     -12.969 -13.198  28.543  0.00  0.00    +0.000 C 
ATOM    111  CD2 LEU C  12     -10.692 -13.159  29.617  0.00  0.00    +0.000 C 
ATOM    112  N   NME C  13      -8.171 -14.404  25.708  0.00  0.00    +0.000 N 
ATOM    113  H   NME C  13      -7.938 -14.678  26.649  0.00  0.00    +0.000 HD
ATOM    114  C   NME C  13      -7.739 -15.223  24.596  0.00  0.00    +0.000 C 
TER 
REMARK  Name = /home/xianyang/aimnet2_score_pipelines/work/L1234-fixed-receptor-eint-20260921/L1/P51532/prepared.pdb
REMARK                            x       y       z     vdW  Elec       q    Type
REMARK                         _______ _______ _______ _____ _____    ______ ____
ATOM      1  CH3 ACE D   1     -11.602 -12.529  21.671  0.00  0.00    +0.000 C 
ATOM      2  C   ACE D   1     -11.137 -11.913  20.364  0.00  0.00    +0.000 C 
ATOM      3  O   ACE D   1     -10.014 -12.071  19.897  0.00  0.00    +0.000 OA
ATOM      4  N   LEU D   2     -12.001 -11.104  19.793  0.00  0.00    +0.000 N 
ATOM      5  H   LEU D   2     -12.923 -11.011  20.188  0.00  0.00    +0.000 HD
ATOM      6  CA  LEU D   2     -11.677 -10.421  18.555  0.00  0.00    +0.000 C 
ATOM      7  C   LEU D   2     -10.451  -9.541  18.738  0.00  0.00    +0.000 C 
ATOM      8  O   LEU D   2      -9.513  -9.579  17.937  0.00  0.00    +0.000 OA
ATOM      9  CB  LEU D   2     -12.858  -9.555  18.123  0.00  0.00    +0.000 C 
ATOM     10  CG  LEU D   2     -12.632  -8.740  16.818  0.00  0.00    +0.000 C 
ATOM     11  CD1 LEU D   2     -13.839  -8.694  15.886  0.00  0.00    +0.000 C 
ATOM     12  CD2 LEU D   2     -12.185  -7.309  17.109  0.00  0.00    +0.000 C 
ATOM     13  N   ILE D   3     -10.433  -8.743  19.810  0.00  0.00    +0.000 N 
ATOM     14  H   ILE D   3     -11.220  -8.740  20.437  0.00  0.00    +0.000 HD
ATOM     15  CA  ILE D   3      -9.326  -7.805  20.013  0.00  0.00    +0.000 C 
ATOM     16  C   ILE D   3      -8.022  -8.522  20.291  0.00  0.00    +0.000 C 
ATOM     17  O   ILE D   3      -6.985  -8.184  19.700  0.00  0.00    +0.000 OA
ATOM     18  CB  ILE D   3      -9.666  -6.777  21.108  0.00  0.00    +0.000 C 
ATOM     19  CG1 ILE D   3     -10.828  -5.958  20.592  0.00  0.00    +0.000 C 
ATOM     20  CG2 ILE D   3      -8.481  -5.871  21.408  0.00  0.00    +0.000 C 
ATOM     21  CD1 ILE D   3     -11.354  -4.896  21.513  0.00  0.00    +0.000 C 
ATOM     22  N   TYR D   4      -8.034  -9.532  21.147  0.00  0.00    +0.000 N 
ATOM     23  H   TYR D   4      -8.905  -9.845  21.538  0.00  0.00    +0.000 HD
ATOM     24  CA  TYR D   4      -6.845 -10.305  21.377  0.00  0.00    +0.000 C 
ATOM     25  C   TYR D   4      -6.288 -10.905  20.106  0.00  0.00    +0.000 C 
ATOM     26  O   TYR D   4      -5.092 -10.796  19.770  0.00  0.00    +0.000 OA
ATOM     27  CB  TYR D   4      -7.188 -11.356  22.434  0.00  0.00    +0.000 C 
ATOM     28  CG  TYR D   4      -6.051 -12.250  22.838  0.00  0.00    +0.000 A 
ATOM     29  CD1 TYR D   4      -5.487 -13.163  21.980  0.00  0.00    +0.000 A 
ATOM     30  CD2 TYR D   4      -5.608 -12.231  24.151  0.00  0.00    +0.000 A 
ATOM     31  CE1 TYR D   4      -4.454 -13.998  22.393  0.00  0.00    +0.000 A 
ATOM     32  CE2 TYR D   4      -4.558 -13.030  24.578  0.00  0.00    +0.000 A 
ATOM     33  CZ  TYR D   4      -3.978 -13.916  23.695  0.00  0.00    +0.000 A 
ATOM     34  OH  TYR D   4      -2.950 -14.747  24.080  0.00  0.00    +0.000 OA
ATOM     35  HH  TYR D   4      -2.826 -14.726  25.029  0.00  0.00    +0.000 HD
ATOM     36  N   NME D   5      -7.164 -11.635  19.361  0.00  0.00    +0.000 N 
ATOM     37  H   NME D   5      -8.147 -11.687  19.609  0.00  0.00    +0.000 HD
ATOM     38  C   NME D   5      -6.659 -12.344  18.193  0.00  0.00    +0.000 C 
TER 
