REMARK  Name = /data/user_data/xianyang/t3-aimnet-affinity-balanced/L2/Q13822/pocket.pdb
REMARK                            x       y       z     vdW  Elec       q    Type
REMARK                         _______ _______ _______ _____ _____    ______ ____
ATOM      1  N   LEU A   1      -6.399   2.814 -51.150  0.00  0.00    +0.000 N 
ATOM      2  CA  LEU A   1      -7.562   2.989 -50.311  0.00  0.00    +0.000 C 
ATOM      3  C   LEU A   1      -8.787   3.478 -51.083  0.00  0.00    +0.000 C 
ATOM      4  O   LEU A   1      -9.854   3.665 -50.496  0.00  0.00    +0.000 OA
ATOM      5  CB  LEU A   1      -7.209   3.968 -49.181  0.00  0.00    +0.000 C 
ATOM      6  CG  LEU A   1      -8.188   4.082 -48.008  0.00  0.00    +0.000 C 
ATOM      7  CD1 LEU A   1      -8.308   2.752 -47.297  0.00  0.00    +0.000 C 
ATOM      8  CD2 LEU A   1      -7.717   5.180 -47.051  0.00  0.00    +0.000 C 
ATOM      9  H   LEU A   1      -6.619   2.165 -51.906  0.00  0.00    +0.000 HD
ATOM     10  H   LEU A   1      -5.631   2.439 -50.593  0.00  0.00    +0.000 HD
ATOM     11  H   LEU A   1      -6.125   3.714 -51.544  0.00  0.00    +0.000 HD
TER 
REMARK  Name = /data/user_data/xianyang/t3-aimnet-affinity-balanced/L2/Q13822/pocket.pdb
REMARK                            x       y       z     vdW  Elec       q    Type
REMARK                         _______ _______ _______ _____ _____    ______ ____
ATOM      1  N   SER B   1     -12.352   1.919 -50.540  0.00  0.00    +0.000 N 
ATOM      2  CA  SER B   1     -13.032   2.171 -49.269  0.00  0.00    +0.000 C 
ATOM      3  C   SER B   1     -13.811   3.479 -49.234  0.00  0.00    +0.000 C 
ATOM      4  O   SER B   1     -14.546   3.735 -48.268  0.00  0.00    +0.000 OA
ATOM      5  CB  SER B   1     -12.043   2.134 -48.101  0.00  0.00    +0.000 C 
ATOM      6  OG  SER B   1     -11.275   0.943 -48.097  0.00  0.00    +0.000 OA
ATOM      7  N   TYR B   2     -13.624   4.319 -50.248  0.00  0.00    +0.000 N 
ATOM      8  CA  TYR B   2     -14.371   5.563 -50.427  0.00  0.00    +0.000 C 
ATOM      9  C   TYR B   2     -15.147   5.538 -51.752  0.00  0.00    +0.000 C 
ATOM     10  O   TYR B   2     -15.543   6.587 -52.253  0.00  0.00    +0.000 OA
ATOM     11  CB  TYR B   2     -13.397   6.728 -50.390  0.00  0.00    +0.000 C 
ATOM     12  CG  TYR B   2     -12.851   6.932 -49.010  0.00  0.00    +0.000 A 
ATOM     13  CD1 TYR B   2     -11.704   6.275 -48.586  0.00  0.00    +0.000 A 
ATOM     14  CD2 TYR B   2     -13.524   7.740 -48.106  0.00  0.00    +0.000 A 
ATOM     15  CE1 TYR B   2     -11.221   6.438 -47.312  0.00  0.00    +0.000 A 
ATOM     16  CE2 TYR B   2     -13.054   7.917 -46.826  0.00  0.00    +0.000 A 
ATOM     17  CZ  TYR B   2     -11.909   7.251 -46.427  0.00  0.00    +0.000 A 
ATOM     18  OH  TYR B   2     -11.440   7.414 -45.153  0.00  0.00    +0.000 OA
ATOM     19  H   SER B   1     -13.031   1.949 -51.301  0.00  0.00    +0.000 HD
ATOM     20  H   SER B   1     -11.911   0.999 -50.513  0.00  0.00    +0.000 HD
ATOM     21  H   SER B   1     -11.640   2.633 -50.692  0.00  0.00    +0.000 HD
ATOM     22  H   SER B   1     -11.864   0.179 -48.001  0.00  0.00    +0.000 HD
ATOM     23  H   TYR B   2     -12.941   4.089 -50.919  0.00  0.00    +0.000 HD
ATOM     24  H   TYR B   2     -10.665   6.965 -44.878  0.00  0.00    +0.000 HD
TER 
REMARK  Name = /data/user_data/xianyang/t3-aimnet-affinity-balanced/L2/Q13822/pocket.pdb
REMARK                            x       y       z     vdW  Elec       q    Type
REMARK                         _______ _______ _______ _____ _____    ______ ____
ATOM      1  N   PHE C   1      -9.907  -3.096 -33.094  0.00  0.00    +0.000 N 
ATOM      2  CA  PHE C   1      -9.650  -1.679 -33.278  0.00  0.00    +0.000 C 
ATOM      3  C   PHE C   1      -8.858  -1.061 -32.135  0.00  0.00    +0.000 C 
ATOM      4  O   PHE C   1      -7.919  -0.269 -32.387  0.00  0.00    +0.000 OA
ATOM      5  CB  PHE C   1     -10.956  -0.904 -33.538  0.00  0.00    +0.000 C 
ATOM      6  CG  PHE C   1     -11.434  -0.998 -34.968  0.00  0.00    +0.000 A 
ATOM      7  CD1 PHE C   1     -10.559  -0.821 -36.024  0.00  0.00    +0.000 A 
ATOM      8  CD2 PHE C   1     -12.757  -1.256 -35.253  0.00  0.00    +0.000 A 
ATOM      9  CE1 PHE C   1     -10.988  -0.906 -37.337  0.00  0.00    +0.000 A 
ATOM     10  CE2 PHE C   1     -13.189  -1.342 -36.572  0.00  0.00    +0.000 A 
ATOM     11  CZ  PHE C   1     -12.295  -1.172 -37.609  0.00  0.00    +0.000 A 
ATOM     12  H   PHE C   1     -10.439  -3.451 -33.889  0.00  0.00    +0.000 HD
ATOM     13  H   PHE C   1     -10.442  -3.236 -32.237  0.00  0.00    +0.000 HD
ATOM     14  H   PHE C   1      -9.021  -3.596 -33.027  0.00  0.00    +0.000 HD
TER 
REMARK  Name = /data/user_data/xianyang/t3-aimnet-affinity-balanced/L2/Q13822/pocket.pdb
REMARK                            x       y       z     vdW  Elec       q    Type
REMARK                         _______ _______ _______ _____ _____    ______ ____
ATOM      1  N   LEU D   1      -5.053  -2.450 -32.738  0.00  0.00    +0.000 N 
ATOM      2  CA  LEU D   1      -4.331  -1.884 -33.870  0.00  0.00    +0.000 C 
ATOM      3  C   LEU D   1      -3.983  -0.416 -33.644  0.00  0.00    +0.000 C 
ATOM      4  O   LEU D   1      -2.875   0.027 -33.987  0.00  0.00    +0.000 OA
ATOM      5  CB  LEU D   1      -5.086  -2.062 -35.177  0.00  0.00    +0.000 C 
ATOM      6  CG  LEU D   1      -5.322  -3.517 -35.653  0.00  0.00    +0.000 C 
ATOM      7  CD1 LEU D   1      -6.127  -3.526 -36.953  0.00  0.00    +0.000 C 
ATOM      8  CD2 LEU D   1      -4.026  -4.275 -35.793  0.00  0.00    +0.000 C 
ATOM      9  N   TYR D   2      -4.906   0.330 -33.063  0.00  0.00    +0.000 N 
ATOM     10  CA  TYR D   2      -4.637   1.749 -32.844  0.00  0.00    +0.000 C 
ATOM     11  C   TYR D   2      -3.666   1.986 -31.666  0.00  0.00    +0.000 C 
ATOM     12  O   TYR D   2      -2.882   2.958 -31.681  0.00  0.00    +0.000 OA
ATOM     13  CB  TYR D   2      -5.938   2.572 -32.767  0.00  0.00    +0.000 C 
ATOM     14  CG  TYR D   2      -5.718   4.017 -33.177  0.00  0.00    +0.000 A 
ATOM     15  CD1 TYR D   2      -5.093   4.335 -34.386  0.00  0.00    +0.000 A 
ATOM     16  CD2 TYR D   2      -6.102   5.050 -32.350  0.00  0.00    +0.000 A 
ATOM     17  CE1 TYR D   2      -4.855   5.655 -34.747  0.00  0.00    +0.000 A 
ATOM     18  CE2 TYR D   2      -5.865   6.356 -32.695  0.00  0.00    +0.000 A 
ATOM     19  CZ  TYR D   2      -5.247   6.653 -33.895  0.00  0.00    +0.000 A 
ATOM     20  OH  TYR D   2      -5.009   7.972 -34.220  0.00  0.00    +0.000 OA
ATOM     21  H   LEU D   1      -5.267  -3.429 -32.927  0.00  0.00    +0.000 HD
ATOM     22  H   LEU D   1      -5.921  -1.934 -32.596  0.00  0.00    +0.000 HD
ATOM     23  H   LEU D   1      -4.476  -2.383 -31.899  0.00  0.00    +0.000 HD
ATOM     24  H   TYR D   2      -5.763  -0.065 -32.782  0.00  0.00    +0.000 HD
ATOM     25  H   TYR D   2      -4.591   8.187 -35.031  0.00  0.00    +0.000 HD
TER 
REMARK  Name = /data/user_data/xianyang/t3-aimnet-affinity-balanced/L2/Q13822/pocket.pdb
REMARK                            x       y       z     vdW  Elec       q    Type
REMARK                         _______ _______ _______ _____ _____    ______ ____
ATOM      1  N   ALA E   1      -0.394   1.564 -33.226  0.00  0.00    +0.000 N 
ATOM      2  CA  ALA E   1      -0.127   2.749 -34.032  0.00  0.00    +0.000 C 
ATOM      3  C   ALA E   1       0.311   3.962 -33.232  0.00  0.00    +0.000 C 
ATOM      4  O   ALA E   1       0.976   4.835 -33.783  0.00  0.00    +0.000 OA
ATOM      5  CB  ALA E   1      -1.357   3.127 -34.846  0.00  0.00    +0.000 C 
ATOM      6  H   ALA E   1      -0.681   0.797 -33.834  0.00  0.00    +0.000 HD
ATOM      7  H   ALA E   1      -1.139   1.767 -32.559  0.00  0.00    +0.000 HD
ATOM      8  H   ALA E   1       0.451   1.299 -32.721  0.00  0.00    +0.000 HD
TER 
REMARK  Name = /data/user_data/xianyang/t3-aimnet-affinity-balanced/L2/Q13822/pocket.pdb
REMARK                            x       y       z     vdW  Elec       q    Type
REMARK                         _______ _______ _______ _____ _____    ______ ____
ATOM      1  N   LEU F   1     -17.944  -1.341 -36.118  0.00  0.00    +0.000 N 
ATOM      2  CA  LEU F   1     -17.180  -2.190 -37.025  0.00  0.00    +0.000 C 
ATOM      3  C   LEU F   1     -17.632  -2.067 -38.467  0.00  0.00    +0.000 C 
ATOM      4  O   LEU F   1     -16.831  -1.876 -39.358  0.00  0.00    +0.000 OA
ATOM      5  CB  LEU F   1     -17.390  -3.651 -36.638  0.00  0.00    +0.000 C 
ATOM      6  CG  LEU F   1     -16.565  -4.267 -35.531  0.00  0.00    +0.000 C 
ATOM      7  CD2 LEU F   1     -17.006  -5.710 -35.326  0.00  0.00    +0.000 C 
ATOM      8  CD1 LEU F   1     -15.098  -4.188 -35.909  0.00  0.00    +0.000 C 
ATOM      9  H   LEU F   1     -17.807  -0.363 -36.372  0.00  0.00    +0.000 HD
ATOM     10  H   LEU F   1     -17.624  -1.492 -35.161  0.00  0.00    +0.000 HD
ATOM     11  H   LEU F   1     -18.934  -1.575 -36.187  0.00  0.00    +0.000 HD
TER 
REMARK  Name = /data/user_data/xianyang/t3-aimnet-affinity-balanced/L2/Q13822/pocket.pdb
REMARK                            x       y       z     vdW  Elec       q    Type
REMARK                         _______ _______ _______ _____ _____    ______ ____
ATOM      1  N   LYS G   1     -16.957   5.058 -38.603  0.00  0.00    +0.000 N 
ATOM      2  CA  LYS G   1     -15.550   4.816 -38.202  0.00  0.00    +0.000 C 
ATOM      3  C   LYS G   1     -14.494   5.478 -39.088  0.00  0.00    +0.000 C 
ATOM      4  O   LYS G   1     -13.363   5.676 -38.647  0.00  0.00    +0.000 OA
ATOM      5  CB  LYS G   1     -15.271   3.317 -38.167  0.00  0.00    +0.000 C 
ATOM      6  CG  LYS G   1     -15.285   2.630 -39.533  0.00  0.00    +0.000 C 
ATOM      7  CD  LYS G   1     -14.809   1.195 -39.377  0.00  0.00    +0.000 C 
ATOM      8  CE  LYS G   1     -14.732   0.430 -40.691  0.00  0.00    +0.000 C 
ATOM      9  NZ  LYS G   1     -16.063   0.055 -41.207  0.00  0.00    +0.000 N 
ATOM     10  N   PHE G   2     -14.827   5.792 -40.337  0.00  0.00    +0.000 N 
ATOM     11  CA  PHE G   2     -13.872   6.451 -41.237  0.00  0.00    +0.000 C 
ATOM     12  C   PHE G   2     -13.693   7.933 -40.931  0.00  0.00    +0.000 C 
ATOM     13  O   PHE G   2     -12.737   8.538 -41.417  0.00  0.00    +0.000 OA
ATOM     14  CB  PHE G   2     -14.253   6.277 -42.720  0.00  0.00    +0.000 C 
ATOM     15  CG  PHE G   2     -14.070   4.877 -43.230  0.00  0.00    +0.000 A 
ATOM     16  CD1 PHE G   2     -12.822   4.446 -43.646  0.00  0.00    +0.000 A 
ATOM     17  CD2 PHE G   2     -15.133   3.989 -43.278  0.00  0.00    +0.000 A 
ATOM     18  CE1 PHE G   2     -12.627   3.146 -44.108  0.00  0.00    +0.000 A 
ATOM     19  CE2 PHE G   2     -14.953   2.696 -43.742  0.00  0.00    +0.000 A 
ATOM     20  CZ  PHE G   2     -13.692   2.273 -44.151  0.00  0.00    +0.000 A 
ATOM     21  N   ASN G   3     -14.596   8.506 -40.136  0.00  0.00    +0.000 N 
ATOM     22  CA  ASN G   3     -14.438   9.883 -39.677  0.00  0.00    +0.000 C 
ATOM     23  C   ASN G   3     -13.247   9.959 -38.736  0.00  0.00    +0.000 C 
ATOM     24  O   ASN G   3     -13.217   9.314 -37.702  0.00  0.00    +0.000 OA
ATOM     25  CB  ASN G   3     -15.666  10.400 -38.956  0.00  0.00    +0.000 C 
ATOM     26  CG  ASN G   3     -15.651  11.915 -38.836  0.00  0.00    +0.000 C 
ATOM     27  OD1 ASN G   3     -14.598  12.518 -38.620  0.00  0.00    +0.000 OA
ATOM     28  ND2 ASN G   3     -16.824  12.545 -39.012  0.00  0.00    +0.000 N 
ATOM     29  N   HIS G   4     -12.278  10.759 -39.107  0.00  0.00    +0.000 N 
ATOM     30  CA  HIS G   4     -11.034  10.831 -38.346  0.00  0.00    +0.000 C 
ATOM     31  C   HIS G   4     -11.213  11.457 -36.955  0.00  0.00    +0.000 C 
ATOM     32  O   HIS G   4     -10.344  11.324 -36.091  0.00  0.00    +0.000 OA
ATOM     33  CB  HIS G   4      -9.980  11.544 -39.181  0.00  0.00    +0.000 C 
ATOM     34  CG  HIS G   4      -9.436  10.695 -40.293  0.00  0.00    +0.000 C 
ATOM     35  ND1 HIS G   4      -8.380  11.088 -41.082  0.00  0.00    +0.000 NA
ATOM     36  CD2 HIS G   4      -9.818   9.479 -40.757  0.00  0.00    +0.000 C 
ATOM     37  CE1 HIS G   4      -8.126  10.150 -41.976  0.00  0.00    +0.000 C 
ATOM     38  NE2 HIS G   4      -8.981   9.159 -41.795  0.00  0.00    +0.000 NA
ATOM     39  N   ARG G   5     -12.357  12.103 -36.711  0.00  0.00    +0.000 N 
ATOM     40  CA  ARG G   5     -12.619  12.692 -35.424  0.00  0.00    +0.000 C 
ATOM     41  C   ARG G   5     -12.517  11.692 -34.245  0.00  0.00    +0.000 C 
ATOM     42  O   ARG G   5     -12.240  12.087 -33.124  0.00  0.00    +0.000 OA
ATOM     43  CB  ARG G   5     -13.990  13.381 -35.420  0.00  0.00    +0.000 C 
ATOM     44  CG  ARG G   5     -15.186  12.436 -35.426  0.00  0.00    +0.000 C 
ATOM     45  CD  ARG G   5     -16.502  13.200 -35.436  0.00  0.00    +0.000 C 
ATOM     46  NE  ARG G   5     -17.685  12.368 -35.681  0.00  0.00    +0.000 N 
ATOM     47  CZ  ARG G   5     -18.948  12.797 -35.569  0.00  0.00    +0.000 C 
ATOM     48  NH2 ARG G   5     -19.212  14.031 -35.167  0.00  0.00    +0.000 N 
ATOM     49  NH1 ARG G   5     -19.953  11.989 -35.846  0.00  0.00    +0.000 N 
ATOM     50  H   LYS G   1     -17.137   6.062 -38.624  0.00  0.00    +0.000 HD
ATOM     51  H   LYS G   1     -17.583   4.615 -37.931  0.00  0.00    +0.000 HD
ATOM     52  H   LYS G   1     -17.119   4.664 -39.530  0.00  0.00    +0.000 HD
ATOM     53  H   LYS G   1     -16.607   0.898 -41.390  0.00  0.00    +0.000 HD
ATOM     54  H   LYS G   1     -16.547  -0.518 -40.515  0.00  0.00    +0.000 HD
ATOM     55  H   LYS G   1     -15.955  -0.475 -42.072  0.00  0.00    +0.000 HD
ATOM     56  H   PHE G   2     -15.731   5.579 -40.664  0.00  0.00    +0.000 HD
ATOM     57  H   ASN G   3     -15.385   7.991 -39.853  0.00  0.00    +0.000 HD
ATOM     58  H   ASN G   3     -17.642  12.024 -39.182  0.00  0.00    +0.000 HD
ATOM     59  H   ASN G   3     -16.866  13.528 -38.971  0.00  0.00    +0.000 HD
ATOM     60  H   HIS G   4     -12.390  11.319 -39.909  0.00  0.00    +0.000 HD
ATOM     61  H   ARG G   5     -13.032  12.177 -37.424  0.00  0.00    +0.000 HD
ATOM     62  H   ARG G   5     -17.540  11.431 -35.946  0.00  0.00    +0.000 HD
ATOM     63  H   ARG G   5     -20.145  14.334 -35.089  0.00  0.00    +0.000 HD
ATOM     64  H   ARG G   5     -18.475  14.645 -34.946  0.00  0.00    +0.000 HD
ATOM     65  H   ARG G   5     -19.776  11.068 -36.146  0.00  0.00    +0.000 HD
ATOM     66  H   ARG G   5     -20.880  12.307 -35.753  0.00  0.00    +0.000 HD
TER 
REMARK  Name = /data/user_data/xianyang/t3-aimnet-affinity-balanced/L2/Q13822/pocket.pdb
REMARK                            x       y       z     vdW  Elec       q    Type
REMARK                         _______ _______ _______ _____ _____    ______ ____
ATOM      1  N   TRP H   1     -10.262   9.302 -33.883  0.00  0.00    +0.000 N 
ATOM      2  CA  TRP H   1      -8.939   8.698 -33.762  0.00  0.00    +0.000 C 
ATOM      3  C   TRP H   1      -7.944   9.713 -33.217  0.00  0.00    +0.000 C 
ATOM      4  O   TRP H   1      -7.445  10.592 -33.949  0.00  0.00    +0.000 OA
ATOM      5  CB  TRP H   1      -8.517   8.189 -35.142  0.00  0.00    +0.000 C 
ATOM      6  CG  TRP H   1      -9.509   7.217 -35.755  0.00  0.00    +0.000 C 
ATOM      7  CD1 TRP H   1     -10.628   7.528 -36.469  0.00  0.00    +0.000 C 
ATOM      8  CD2 TRP H   1      -9.419   5.793 -35.756  0.00  0.00    +0.000 C 
ATOM      9  NE1 TRP H   1     -11.271   6.381 -36.893  0.00  0.00    +0.000 NA
ATOM     10  CE2 TRP H   1     -10.549   5.297 -36.475  0.00  0.00    +0.000 C 
ATOM     11  CE3 TRP H   1      -8.507   4.881 -35.222  0.00  0.00    +0.000 C 
ATOM     12  CZ2 TRP H   1     -10.769   3.956 -36.674  0.00  0.00    +0.000 C 
ATOM     13  CZ3 TRP H   1      -8.750   3.521 -35.396  0.00  0.00    +0.000 C 
ATOM     14  CH2 TRP H   1      -9.880   3.075 -36.126  0.00  0.00    +0.000 C 
ATOM     15  N   GLY H   2      -7.628   9.588 -31.923  0.00  0.00    +0.000 N 
ATOM     16  CA  GLY H   2      -6.815  10.574 -31.249  0.00  0.00    +0.000 C 
ATOM     17  C   GLY H   2      -5.341  10.206 -31.233  0.00  0.00    +0.000 C 
ATOM     18  O   GLY H   2      -4.878   9.363 -31.988  0.00  0.00    +0.000 OA
ATOM     19  N   GLY H   3      -4.601  10.846 -30.339  0.00  0.00    +0.000 N 
ATOM     20  CA  GLY H   3      -3.160  10.663 -30.288  0.00  0.00    +0.000 C 
ATOM     21  C   GLY H   3      -2.493  11.032 -31.580  0.00  0.00    +0.000 C 
ATOM     22  O   GLY H   3      -3.042  11.795 -32.380  0.00  0.00    +0.000 OA
ATOM     23  H   TRP H   1     -10.918   8.612 -34.249  0.00  0.00    +0.000 HD
ATOM     24  H   TRP H   1     -10.215  10.098 -34.519  0.00  0.00    +0.000 HD
ATOM     25  H   TRP H   1     -10.577   9.618 -32.966  0.00  0.00    +0.000 HD
ATOM     26  H   GLY H   2      -7.956   8.808 -31.420  0.00  0.00    +0.000 HD
ATOM     27  H   GLY H   3      -5.035  11.455 -29.699  0.00  0.00    +0.000 HD
TER 
REMARK  Name = /data/user_data/xianyang/t3-aimnet-affinity-balanced/L2/Q13822/pocket.pdb
REMARK                            x       y       z     vdW  Elec       q    Type
REMARK                         _______ _______ _______ _____ _____    ______ ____
ATOM      1  N   PRO I   1      -0.648   8.841 -34.519  0.00  0.00    +0.000 N 
ATOM      2  CA  PRO I   1      -0.227   7.538 -35.004  0.00  0.00    +0.000 C 
ATOM      3  C   PRO I   1       1.053   7.604 -35.829  0.00  0.00    +0.000 C 
ATOM      4  O   PRO I   1       1.402   8.649 -36.367  0.00  0.00    +0.000 OA
ATOM      5  CB  PRO I   1      -1.393   7.094 -35.851  0.00  0.00    +0.000 C 
ATOM      6  CG  PRO I   1      -1.992   8.387 -36.349  0.00  0.00    +0.000 C 
ATOM      7  CD  PRO I   1      -1.885   9.305 -35.181  0.00  0.00    +0.000 C 
ATOM      8  H   PRO I   1      -0.815   8.780 -33.515  0.00  0.00    +0.000 HD
ATOM      9  H   PRO I   1       0.092   9.510 -34.730  0.00  0.00    +0.000 HD
TER 
REMARK  Name = /data/user_data/xianyang/t3-aimnet-affinity-balanced/L2/Q13822/pocket.pdb
REMARK                            x       y       z     vdW  Elec       q    Type
REMARK                         _______ _______ _______ _____ _____    ______ ____
ATOM      1  N   TRP J   1       2.186   6.870 -38.811  0.00  0.00    +0.000 N 
ATOM      2  CA  TRP J   1       2.207   7.454 -40.128  0.00  0.00    +0.000 C 
ATOM      3  C   TRP J   1       2.211   8.974 -40.072  0.00  0.00    +0.000 C 
ATOM      4  O   TRP J   1       2.858   9.606 -40.900  0.00  0.00    +0.000 OA
ATOM      5  CB  TRP J   1       1.090   6.911 -41.046  0.00  0.00    +0.000 C 
ATOM      6  CG  TRP J   1      -0.304   7.008 -40.487  0.00  0.00    +0.000 C 
ATOM      7  CD1 TRP J   1      -1.182   8.035 -40.657  0.00  0.00    +0.000 C 
ATOM      8  CD2 TRP J   1      -0.977   6.042 -39.674  0.00  0.00    +0.000 C 
ATOM      9  NE1 TRP J   1      -2.353   7.777 -40.002  0.00  0.00    +0.000 NA
ATOM     10  CE2 TRP J   1      -2.259   6.557 -39.388  0.00  0.00    +0.000 C 
ATOM     11  CE3 TRP J   1      -0.622   4.794 -39.156  0.00  0.00    +0.000 C 
ATOM     12  CZ2 TRP J   1      -3.187   5.871 -38.615  0.00  0.00    +0.000 C 
ATOM     13  CZ3 TRP J   1      -1.532   4.113 -38.386  0.00  0.00    +0.000 C 
ATOM     14  CH2 TRP J   1      -2.815   4.655 -38.115  0.00  0.00    +0.000 C 
ATOM     15  N   ILE J   2       1.532   9.560 -39.089  0.00  0.00    +0.000 N 
ATOM     16  CA  ILE J   2       1.533  11.008 -38.895  0.00  0.00    +0.000 C 
ATOM     17  C   ILE J   2       2.865  11.474 -38.294  0.00  0.00    +0.000 C 
ATOM     18  O   ILE J   2       3.434  12.495 -38.713  0.00  0.00    +0.000 OA
ATOM     19  CB  ILE J   2       0.360  11.453 -38.007  0.00  0.00    +0.000 C 
ATOM     20  CG1 ILE J   2      -0.963  11.127 -38.691  0.00  0.00    +0.000 C 
ATOM     21  CG2 ILE J   2       0.454  12.935 -37.670  0.00  0.00    +0.000 C 
ATOM     22  CD1 ILE J   2      -1.162  11.705 -40.083  0.00  0.00    +0.000 C 
ATOM     23  H   TRP J   1       2.184   5.853 -38.890  0.00  0.00    +0.000 HD
ATOM     24  H   TRP J   1       1.347   7.174 -38.317  0.00  0.00    +0.000 HD
ATOM     25  H   TRP J   1       3.012   7.169 -38.293  0.00  0.00    +0.000 HD
ATOM     26  H   ILE J   2       1.011   8.998 -38.471  0.00  0.00    +0.000 HD
TER 
REMARK  Name = /data/user_data/xianyang/t3-aimnet-affinity-balanced/L2/Q13822/pocket.pdb
REMARK                            x       y       z     vdW  Elec       q    Type
REMARK                         _______ _______ _______ _____ _____    ______ ____
ATOM      1  N   PHE K   1      -2.738   2.842 -45.609  0.00  0.00    +0.000 N 
ATOM      2  CA  PHE K   1      -3.813   1.848 -45.491  0.00  0.00    +0.000 C 
ATOM      3  C   PHE K   1      -4.325   1.271 -46.804  0.00  0.00    +0.000 C 
ATOM      4  O   PHE K   1      -4.670   2.006 -47.735  0.00  0.00    +0.000 OA
ATOM      5  CB  PHE K   1      -5.025   2.441 -44.734  0.00  0.00    +0.000 C 
ATOM      6  CG  PHE K   1      -4.775   2.642 -43.265  0.00  0.00    +0.000 A 
ATOM      7  CD2 PHE K   1      -5.008   1.622 -42.368  0.00  0.00    +0.000 A 
ATOM      8  CD1 PHE K   1      -4.271   3.848 -42.792  0.00  0.00    +0.000 A 
ATOM      9  CE2 PHE K   1      -4.745   1.788 -41.021  0.00  0.00    +0.000 A 
ATOM     10  CE1 PHE K   1      -4.006   4.018 -41.450  0.00  0.00    +0.000 A 
ATOM     11  CZ  PHE K   1      -4.238   2.979 -40.565  0.00  0.00    +0.000 A 
ATOM     12  N   TRP K   2      -4.466  -0.058 -46.834  0.00  0.00    +0.000 N 
ATOM     13  CA  TRP K   2      -5.076  -0.776 -47.962  0.00  0.00    +0.000 C 
ATOM     14  C   TRP K   2      -6.556  -0.973 -47.743  0.00  0.00    +0.000 C 
ATOM     15  O   TRP K   2      -6.987  -1.309 -46.636  0.00  0.00    +0.000 OA
ATOM     16  CB  TRP K   2      -4.433  -2.180 -48.149  0.00  0.00    +0.000 C 
ATOM     17  CG  TRP K   2      -3.096  -2.096 -48.775  0.00  0.00    +0.000 C 
ATOM     18  CD1 TRP K   2      -1.906  -1.884 -48.137  0.00  0.00    +0.000 C 
ATOM     19  CD2 TRP K   2      -2.800  -2.205 -50.155  0.00  0.00    +0.000 A 
ATOM     20  NE1 TRP K   2      -0.886  -1.825 -49.055  0.00  0.00    +0.000 NA
ATOM     21  CE2 TRP K   2      -1.417  -2.021 -50.304  0.00  0.00    +0.000 A 
ATOM     22  CE3 TRP K   2      -3.571  -2.434 -51.292  0.00  0.00    +0.000 A 
ATOM     23  CZ2 TRP K   2      -0.807  -2.062 -51.529  0.00  0.00    +0.000 A 
ATOM     24  CZ3 TRP K   2      -2.963  -2.471 -52.496  0.00  0.00    +0.000 A 
ATOM     25  CH2 TRP K   2      -1.601  -2.275 -52.617  0.00  0.00    +0.000 A 
ATOM     26  N   SER K   3      -7.332  -0.813 -48.807  0.00  0.00    +0.000 N 
ATOM     27  CA  SER K   3      -8.695  -1.334 -48.820  0.00  0.00    +0.000 C 
ATOM     28  C   SER K   3      -8.643  -2.853 -48.636  0.00  0.00    +0.000 C 
ATOM     29  O   SER K   3      -7.937  -3.550 -49.368  0.00  0.00    +0.000 OA
ATOM     30  CB  SER K   3      -9.388  -0.975 -50.147  0.00  0.00    +0.000 C 
ATOM     31  OG  SER K   3      -9.539   0.437 -50.258  0.00  0.00    +0.000 OA
ATOM     32  N   VAL K   4      -9.384  -3.374 -47.658  0.00  0.00    +0.000 N 
ATOM     33  CA  VAL K   4      -9.279  -4.796 -47.316  0.00  0.00    +0.000 C 
ATOM     34  C   VAL K   4      -9.815  -5.746 -48.403  0.00  0.00    +0.000 C 
ATOM     35  O   VAL K   4      -9.459  -6.924 -48.429  0.00  0.00    +0.000 OA
ATOM     36  CB  VAL K   4      -9.914  -5.111 -45.955  0.00  0.00    +0.000 C 
ATOM     37  CG2 VAL K   4      -9.204  -4.319 -44.866  0.00  0.00    +0.000 C 
ATOM     38  CG1 VAL K   4     -11.401  -4.833 -45.957  0.00  0.00    +0.000 C 
ATOM     39  N   VAL K   5     -10.633  -5.238 -49.312  0.00  0.00    +0.000 N 
ATOM     40  CA  VAL K   5     -11.120  -6.037 -50.436  0.00  0.00    +0.000 C 
ATOM     41  C   VAL K   5     -10.003  -6.440 -51.429  0.00  0.00    +0.000 C 
ATOM     42  O   VAL K   5     -10.183  -7.345 -52.228  0.00  0.00    +0.000 OA
ATOM     43  CB  VAL K   5     -12.244  -5.276 -51.184  0.00  0.00    +0.000 C 
ATOM     44  CG2 VAL K   5     -11.681  -4.149 -52.026  0.00  0.00    +0.000 C 
ATOM     45  CG1 VAL K   5     -13.058  -6.220 -52.056  0.00  0.00    +0.000 C 
ATOM     46  H   PHE K   1      -1.950   2.432 -46.110  0.00  0.00    +0.000 HD
ATOM     47  H   PHE K   1      -2.437   3.129 -44.678  0.00  0.00    +0.000 HD
ATOM     48  H   PHE K   1      -3.081   3.655 -46.121  0.00  0.00    +0.000 HD
ATOM     49  H   TRP K   2      -4.146  -0.581 -46.064  0.00  0.00    +0.000 HD
ATOM     50  H   SER K   3      -6.985  -0.338 -49.596  0.00  0.00    +0.000 HD
ATOM     51  H   SER K   3      -8.665   0.858 -50.238  0.00  0.00    +0.000 HD
ATOM     52  H   VAL K   4     -10.008  -2.798 -47.160  0.00  0.00    +0.000 HD
ATOM     53  H   VAL K   5     -10.920  -4.300 -49.229  0.00  0.00    +0.000 HD
TER 
