REMARK  Name = /data/user_data/xianyang/t3-aimnet-affinity-balanced/L2/P36897/pocket.pdb
REMARK                            x       y       z     vdW  Elec       q    Type
REMARK                         _______ _______ _______ _____ _____    ______ ____
ATOM      1  N   ILE A   1      13.590  18.103   7.652  0.00  0.00    +0.000 N 
ATOM      2  CA  ILE A   1      13.474  17.910   9.084  0.00  0.00    +0.000 C 
ATOM      3  C   ILE A   1      12.640  16.662   9.351  0.00  0.00    +0.000 C 
ATOM      4  O   ILE A   1      12.088  16.500  10.450  0.00  0.00    +0.000 OA
ATOM      5  CB  ILE A   1      12.757  19.111   9.736  0.00  0.00    +0.000 C 
ATOM      6  CG1 ILE A   1      11.650  19.603   8.811  0.00  0.00    +0.000 C 
ATOM      7  CG2 ILE A   1      13.761  20.245  10.017  0.00  0.00    +0.000 C 
ATOM      8  CD1 ILE A   1      10.443  20.133   9.546  0.00  0.00    +0.000 C 
ATOM      9  N   GLY A   2      12.548  15.806   8.327  0.00  0.00    +0.000 N 
ATOM     10  CA  GLY A   2      11.732  14.601   8.380  0.00  0.00    +0.000 C 
ATOM     11  C   GLY A   2      12.457  13.270   8.370  0.00  0.00    +0.000 C 
ATOM     12  O   GLY A   2      13.691  13.193   8.265  0.00  0.00    +0.000 OA
ATOM     13  N   LYS A   3      11.667  12.204   8.441  0.00  0.00    +0.000 N 
ATOM     14  CA  LYS A   3      12.173  10.830   8.551  0.00  0.00    +0.000 C 
ATOM     15  C   LYS A   3      12.508  10.116   7.225  0.00  0.00    +0.000 C 
ATOM     16  O   LYS A   3      13.593  10.288   6.640  0.00  0.00    +0.000 OA
ATOM     17  CB  LYS A   3      11.134   9.998   9.319  0.00  0.00    +0.000 C 
ATOM     18  CG  LYS A   3       9.729  10.487   9.067  0.00  0.00    +0.000 C 
ATOM     19  CD  LYS A   3       8.663   9.507   9.494  0.00  0.00    +0.000 C 
ATOM     20  CE  LYS A   3       7.372   9.817   8.755  0.00  0.00    +0.000 C 
ATOM     21  NZ  LYS A   3       7.721   9.894   7.311  0.00  0.00    +0.000 N 
ATOM     22  H   ILE A   1      14.066  17.301   7.238  0.00  0.00    +0.000 HD
ATOM     23  H   ILE A   1      14.127  18.950   7.465  0.00  0.00    +0.000 HD
ATOM     24  H   ILE A   1      12.659  18.194   7.245  0.00  0.00    +0.000 HD
ATOM     25  H   GLY A   2      13.053  15.999   7.504  0.00  0.00    +0.000 HD
ATOM     26  H   LYS A   3      10.693  12.342   8.419  0.00  0.00    +0.000 HD
ATOM     27  H   LYS A   3       8.130   9.009   7.012  0.00  0.00    +0.000 HD
ATOM     28  H   LYS A   3       8.394  10.646   7.163  0.00  0.00    +0.000 HD
ATOM     29  H   LYS A   3       6.878  10.080   6.767  0.00  0.00    +0.000 HD
TER 
REMARK  Name = /data/user_data/xianyang/t3-aimnet-affinity-balanced/L2/P36897/pocket.pdb
REMARK                            x       y       z     vdW  Elec       q    Type
REMARK                         _______ _______ _______ _____ _____    ______ ____
ATOM      1  N   PHE B   1       7.442   6.713   5.313  0.00  0.00    +0.000 N 
ATOM      2  CA  PHE B   1       6.260   6.885   4.470  0.00  0.00    +0.000 C 
ATOM      3  C   PHE B   1       6.160   8.278   3.821  0.00  0.00    +0.000 C 
ATOM      4  O   PHE B   1       5.110   8.906   3.857  0.00  0.00    +0.000 OA
ATOM      5  CB  PHE B   1       5.023   6.618   5.329  0.00  0.00    +0.000 C 
ATOM      6  CG  PHE B   1       5.337   6.131   6.716  0.00  0.00    +0.000 A 
ATOM      7  CD2 PHE B   1       5.341   7.006   7.796  0.00  0.00    +0.000 A 
ATOM      8  CD1 PHE B   1       5.628   4.795   6.941  0.00  0.00    +0.000 A 
ATOM      9  CE2 PHE B   1       5.607   6.544   9.087  0.00  0.00    +0.000 A 
ATOM     10  CE1 PHE B   1       5.898   4.324   8.225  0.00  0.00    +0.000 A 
ATOM     11  CZ  PHE B   1       5.895   5.201   9.300  0.00  0.00    +0.000 A 
ATOM     12  H   PHE B   1       8.282   6.886   4.761  0.00  0.00    +0.000 HD
ATOM     13  H   PHE B   1       7.465   5.760   5.676  0.00  0.00    +0.000 HD
ATOM     14  H   PHE B   1       7.404   7.372   6.090  0.00  0.00    +0.000 HD
TER 
REMARK  Name = /data/user_data/xianyang/t3-aimnet-affinity-balanced/L2/P36897/pocket.pdb
REMARK                            x       y       z     vdW  Elec       q    Type
REMARK                         _______ _______ _______ _____ _____    ______ ____
ATOM      1  N   VAL C   1       9.573  14.866   5.116  0.00  0.00    +0.000 N 
ATOM      2  CA  VAL C   1       9.163  16.140   5.679  0.00  0.00    +0.000 C 
ATOM      3  C   VAL C   1      10.158  17.269   5.435  0.00  0.00    +0.000 C 
ATOM      4  O   VAL C   1      11.374  17.068   5.387  0.00  0.00    +0.000 OA
ATOM      5  CB  VAL C   1       8.884  16.002   7.202  0.00  0.00    +0.000 C 
ATOM      6  CG2 VAL C   1       8.257  17.279   7.738  0.00  0.00    +0.000 C 
ATOM      7  CG1 VAL C   1       7.955  14.824   7.463  0.00  0.00    +0.000 C 
ATOM      8  H   VAL C   1       9.751  14.977   4.118  0.00  0.00    +0.000 HD
ATOM      9  H   VAL C   1       8.832  14.179   5.255  0.00  0.00    +0.000 HD
ATOM     10  H   VAL C   1      10.424  14.547   5.580  0.00  0.00    +0.000 HD
TER 
REMARK  Name = /data/user_data/xianyang/t3-aimnet-affinity-balanced/L2/P36897/pocket.pdb
REMARK                            x       y       z     vdW  Elec       q    Type
REMARK                         _______ _______ _______ _____ _____    ______ ____
ATOM      1  N   ALA D   1       5.368  23.103   7.917  0.00  0.00    +0.000 N 
ATOM      2  CA  ALA D   1       5.970  21.795   7.664  0.00  0.00    +0.000 C 
ATOM      3  C   ALA D   1       5.270  21.176   6.485  0.00  0.00    +0.000 C 
ATOM      4  O   ALA D   1       4.046  21.283   6.359  0.00  0.00    +0.000 OA
ATOM      5  CB  ALA D   1       5.839  20.891   8.869  0.00  0.00    +0.000 C 
ATOM      6  N   VAL D   2       6.044  20.517   5.628  0.00  0.00    +0.000 N 
ATOM      7  CA  VAL D   2       5.473  19.897   4.441  0.00  0.00    +0.000 C 
ATOM      8  C   VAL D   2       5.967  18.452   4.305  0.00  0.00    +0.000 C 
ATOM      9  O   VAL D   2       7.156  18.188   4.434  0.00  0.00    +0.000 OA
ATOM     10  CB  VAL D   2       5.865  20.655   3.160  0.00  0.00    +0.000 C 
ATOM     11  CG1 VAL D   2       5.172  20.010   1.967  0.00  0.00    +0.000 C 
ATOM     12  CG2 VAL D   2       5.477  22.116   3.313  0.00  0.00    +0.000 C 
ATOM     13  N   LYS D   3       5.027  17.530   4.105  0.00  0.00    +0.000 N 
ATOM     14  CA  LYS D   3       5.286  16.108   3.881  0.00  0.00    +0.000 C 
ATOM     15  C   LYS D   3       4.992  15.823   2.393  0.00  0.00    +0.000 C 
ATOM     16  O   LYS D   3       3.828  15.789   1.938  0.00  0.00    +0.000 OA
ATOM     17  CB  LYS D   3       4.383  15.253   4.776  0.00  0.00    +0.000 C 
ATOM     18  CG  LYS D   3       4.802  13.781   4.878  0.00  0.00    +0.000 C 
ATOM     19  CD  LYS D   3       4.057  13.071   6.014  0.00  0.00    +0.000 C 
ATOM     20  CE  LYS D   3       4.452  11.620   6.123  0.00  0.00    +0.000 C 
ATOM     21  NZ  LYS D   3       3.890  10.947   7.312  0.00  0.00    +0.000 N 
ATOM     22  H   ALA D   1       5.471  23.690   7.089  0.00  0.00    +0.000 HD
ATOM     23  H   ALA D   1       5.836  23.545   8.708  0.00  0.00    +0.000 HD
ATOM     24  H   ALA D   1       4.377  22.986   8.130  0.00  0.00    +0.000 HD
ATOM     25  H   VAL D   2       7.011  20.448   5.798  0.00  0.00    +0.000 HD
ATOM     26  H   LYS D   3       4.089  17.828   4.108  0.00  0.00    +0.000 HD
ATOM     27  H   LYS D   3       4.243  11.398   8.156  0.00  0.00    +0.000 HD
ATOM     28  H   LYS D   3       4.167   9.965   7.310  0.00  0.00    +0.000 HD
ATOM     29  H   LYS D   3       2.872  11.013   7.291  0.00  0.00    +0.000 HD
TER 
REMARK  Name = /data/user_data/xianyang/t3-aimnet-affinity-balanced/L2/P36897/pocket.pdb
REMARK                            x       y       z     vdW  Elec       q    Type
REMARK                         _______ _______ _______ _____ _____    ______ ____
ATOM      1  N   GLU E   1      -4.043   9.853   4.355  0.00  0.00    +0.000 N 
ATOM      2  CA  GLU E   1      -3.645  10.707   5.470  0.00  0.00    +0.000 C 
ATOM      3  C   GLU E   1      -4.391  12.031   5.369  0.00  0.00    +0.000 C 
ATOM      4  O   GLU E   1      -4.786  12.606   6.385  0.00  0.00    +0.000 OA
ATOM      5  CB  GLU E   1      -2.123  10.932   5.475  0.00  0.00    +0.000 C 
ATOM      6  CG  GLU E   1      -1.571  11.212   6.861  0.00  0.00    +0.000 C 
ATOM      7  CD  GLU E   1      -0.055  11.348   6.910  0.00  0.00    +0.000 C 
ATOM      8  OE1 GLU E   1       0.651  10.708   6.098  0.00  0.00    +0.000 OA
ATOM      9  OE2 GLU E   1       0.433  12.084   7.791  0.00  0.00    +0.000 OA
ATOM     10  H   GLU E   1      -5.054   9.719   4.373  0.00  0.00    +0.000 HD
ATOM     11  H   GLU E   1      -3.579   8.949   4.437  0.00  0.00    +0.000 HD
ATOM     12  H   GLU E   1      -3.774  10.295   3.476  0.00  0.00    +0.000 HD
TER 
REMARK  Name = /data/user_data/xianyang/t3-aimnet-affinity-balanced/L2/P36897/pocket.pdb
REMARK                            x       y       z     vdW  Elec       q    Type
REMARK                         _______ _______ _______ _____ _____    ______ ____
ATOM      1  N   TYR F   1      -7.185  13.665   8.240  0.00  0.00    +0.000 N 
ATOM      2  CA  TYR F   1      -7.084  15.033   8.733  0.00  0.00    +0.000 C 
ATOM      3  C   TYR F   1      -8.248  15.911   8.261  0.00  0.00    +0.000 C 
ATOM      4  O   TYR F   1      -8.534  16.940   8.876  0.00  0.00    +0.000 OA
ATOM      5  CB  TYR F   1      -5.774  15.657   8.256  0.00  0.00    +0.000 C 
ATOM      6  CG  TYR F   1      -4.561  15.353   9.115  0.00  0.00    +0.000 A 
ATOM      7  CD2 TYR F   1      -4.429  15.909  10.392  0.00  0.00    +0.000 A 
ATOM      8  CD1 TYR F   1      -3.528  14.544   8.639  0.00  0.00    +0.000 A 
ATOM      9  CE2 TYR F   1      -3.300  15.672  11.170  0.00  0.00    +0.000 A 
ATOM     10  CE1 TYR F   1      -2.399  14.299   9.410  0.00  0.00    +0.000 A 
ATOM     11  CZ  TYR F   1      -2.288  14.870  10.678  0.00  0.00    +0.000 A 
ATOM     12  OH  TYR F   1      -1.161  14.661  11.450  0.00  0.00    +0.000 OA
ATOM     13  H   TYR F   1      -6.391  13.122   8.579  0.00  0.00    +0.000 HD
ATOM     14  H   TYR F   1      -7.182  13.670   7.220  0.00  0.00    +0.000 HD
ATOM     15  H   TYR F   1      -8.052  13.246   8.576  0.00  0.00    +0.000 HD
ATOM     16  H   TYR F   1      -0.467  14.119  11.129  0.00  0.00    +0.000 HD
TER 
REMARK  Name = /data/user_data/xianyang/t3-aimnet-affinity-balanced/L2/P36897/pocket.pdb
REMARK                            x       y       z     vdW  Elec       q    Type
REMARK                         _______ _______ _______ _____ _____    ______ ____
ATOM      1  N   LEU G   1      -1.829  17.512  15.476  0.00  0.00    +0.000 N 
ATOM      2  CA  LEU G   1      -1.106  18.380  14.534  0.00  0.00    +0.000 C 
ATOM      3  C   LEU G   1      -2.032  19.231  13.670  0.00  0.00    +0.000 C 
ATOM      4  O   LEU G   1      -2.900  18.709  12.961  0.00  0.00    +0.000 OA
ATOM      5  CB  LEU G   1      -0.191  17.558  13.614  0.00  0.00    +0.000 C 
ATOM      6  CG  LEU G   1       0.636  18.382  12.619  0.00  0.00    +0.000 C 
ATOM      7  CD2 LEU G   1       1.560  19.333  13.395  0.00  0.00    +0.000 C 
ATOM      8  CD1 LEU G   1       1.447  17.466  11.721  0.00  0.00    +0.000 C 
ATOM      9  H   LEU G   1      -1.159  16.971  16.022  0.00  0.00    +0.000 HD
ATOM     10  H   LEU G   1      -2.436  16.877  14.957  0.00  0.00    +0.000 HD
ATOM     11  H   LEU G   1      -2.394  18.086  16.102  0.00  0.00    +0.000 HD
TER 
REMARK  Name = /data/user_data/xianyang/t3-aimnet-affinity-balanced/L2/P36897/pocket.pdb
REMARK                            x       y       z     vdW  Elec       q    Type
REMARK                         _______ _______ _______ _____ _____    ______ ____
ATOM      1  N   PHE H   1      -3.414  20.572  10.857  0.00  0.00    +0.000 N 
ATOM      2  CA  PHE H   1      -3.372  20.291   9.421  0.00  0.00    +0.000 C 
ATOM      3  C   PHE H   1      -3.707  21.563   8.654  0.00  0.00    +0.000 C 
ATOM      4  O   PHE H   1      -4.619  22.305   9.024  0.00  0.00    +0.000 OA
ATOM      5  CB  PHE H   1      -4.397  19.207   9.080  0.00  0.00    +0.000 C 
ATOM      6  CG  PHE H   1      -4.513  18.896   7.610  0.00  0.00    +0.000 A 
ATOM      7  CD2 PHE H   1      -3.535  18.153   6.952  0.00  0.00    +0.000 A 
ATOM      8  CD1 PHE H   1      -5.631  19.313   6.895  0.00  0.00    +0.000 A 
ATOM      9  CE2 PHE H   1      -3.673  17.827   5.603  0.00  0.00    +0.000 A 
ATOM     10  CE1 PHE H   1      -5.786  18.994   5.543  0.00  0.00    +0.000 A 
ATOM     11  CZ  PHE H   1      -4.805  18.247   4.893  0.00  0.00    +0.000 A 
ATOM     12  H   PHE H   1      -2.730  21.295  11.082  0.00  0.00    +0.000 HD
ATOM     13  H   PHE H   1      -3.194  19.722  11.376  0.00  0.00    +0.000 HD
ATOM     14  H   PHE H   1      -4.347  20.895  11.113  0.00  0.00    +0.000 HD
TER 
REMARK  Name = /data/user_data/xianyang/t3-aimnet-affinity-balanced/L2/P36897/pocket.pdb
REMARK                            x       y       z     vdW  Elec       q    Type
REMARK                         _______ _______ _______ _____ _____    ______ ____
ATOM      1  N   LEU I   1       1.491  17.506   1.680  0.00  0.00    +0.000 N 
ATOM      2  CA  LEU I   1       0.681  17.528   2.870  0.00  0.00    +0.000 C 
ATOM      3  C   LEU I   1       1.309  18.668   3.665  0.00  0.00    +0.000 C 
ATOM      4  O   LEU I   1       2.503  18.634   3.965  0.00  0.00    +0.000 OA
ATOM      5  CB  LEU I   1       0.777  16.190   3.607  0.00  0.00    +0.000 C 
ATOM      6  CG  LEU I   1      -0.592  15.493   3.669  0.00  0.00    +0.000 C 
ATOM      7  CD1 LEU I   1      -0.460  14.000   3.461  0.00  0.00    +0.000 C 
ATOM      8  CD2 LEU I   1      -1.236  15.763   5.012  0.00  0.00    +0.000 C 
ATOM      9  N   VAL I   2       0.513  19.684   3.983  0.00  0.00    +0.000 N 
ATOM     10  CA  VAL I   2       1.034  20.841   4.715  0.00  0.00    +0.000 C 
ATOM     11  C   VAL I   2       0.454  20.983   6.122  0.00  0.00    +0.000 C 
ATOM     12  O   VAL I   2      -0.724  20.736   6.336  0.00  0.00    +0.000 OA
ATOM     13  CB  VAL I   2       0.768  22.153   3.932  0.00  0.00    +0.000 C 
ATOM     14  CG2 VAL I   2       1.548  23.296   4.561  0.00  0.00    +0.000 C 
ATOM     15  CG1 VAL I   2       1.166  21.985   2.457  0.00  0.00    +0.000 C 
ATOM     16  N   SER I   3       1.290  21.391   7.076  0.00  0.00    +0.000 N 
ATOM     17  CA  SER I   3       0.865  21.549   8.468  0.00  0.00    +0.000 C 
ATOM     18  C   SER I   3       1.652  22.608   9.223  0.00  0.00    +0.000 C 
ATOM     19  O   SER I   3       2.586  23.220   8.697  0.00  0.00    +0.000 OA
ATOM     20  CB  SER I   3       1.033  20.233   9.226  0.00  0.00    +0.000 C 
ATOM     21  OG  SER I   3       2.407  20.004   9.543  0.00  0.00    +0.000 OA
ATOM     22  N   ASP I   4       1.278  22.805  10.481  0.00  0.00    +0.000 N 
ATOM     23  CA  ASP I   4       1.974  23.758  11.320  0.00  0.00    +0.000 C 
ATOM     24  C   ASP I   4       3.360  23.187  11.504  0.00  0.00    +0.000 C 
ATOM     25  O   ASP I   4       3.548  21.971  11.481  0.00  0.00    +0.000 OA
ATOM     26  CB  ASP I   4       1.314  23.886  12.689  0.00  0.00    +0.000 C 
ATOM     27  CG  ASP I   4      -0.055  24.493  12.622  0.00  0.00    +0.000 C 
ATOM     28  OD1 ASP I   4      -0.202  25.536  11.967  0.00  0.00    +0.000 OA
ATOM     29  OD2 ASP I   4      -0.984  23.938  13.239  0.00  0.00    +0.000 OA
ATOM     30  N   TYR I   5       4.320  24.084  11.685  0.00  0.00    +0.000 N 
ATOM     31  CA  TYR I   5       5.710  23.739  11.882  0.00  0.00    +0.000 C 
ATOM     32  C   TYR I   5       6.036  23.817  13.370  0.00  0.00    +0.000 C 
ATOM     33  O   TYR I   5       5.652  24.776  14.047  0.00  0.00    +0.000 OA
ATOM     34  CB  TYR I   5       6.588  24.731  11.128  0.00  0.00    +0.000 C 
ATOM     35  CG  TYR I   5       8.058  24.614  11.471  0.00  0.00    +0.000 A 
ATOM     36  CD1 TYR I   5       8.796  23.500  11.085  0.00  0.00    +0.000 A 
ATOM     37  CD2 TYR I   5       8.698  25.604  12.220  0.00  0.00    +0.000 A 
ATOM     38  CE1 TYR I   5      10.140  23.370  11.442  0.00  0.00    +0.000 A 
ATOM     39  CE2 TYR I   5      10.030  25.493  12.578  0.00  0.00    +0.000 A 
ATOM     40  CZ  TYR I   5      10.749  24.374  12.189  0.00  0.00    +0.000 A 
ATOM     41  OH  TYR I   5      12.073  24.255  12.556  0.00  0.00    +0.000 OA
ATOM     42  N   HIS I   6       6.765  22.823  13.869  0.00  0.00    +0.000 N 
ATOM     43  CA  HIS I   6       7.156  22.783  15.273  0.00  0.00    +0.000 C 
ATOM     44  C   HIS I   6       8.669  22.631  15.401  0.00  0.00    +0.000 C 
ATOM     45  O   HIS I   6       9.219  21.551  15.214  0.00  0.00    +0.000 OA
ATOM     46  CB  HIS I   6       6.422  21.641  15.994  0.00  0.00    +0.000 C 
ATOM     47  CG  HIS I   6       4.939  21.848  16.074  0.00  0.00    +0.000 A 
ATOM     48  ND1 HIS I   6       4.371  22.874  16.801  0.00  0.00    +0.000 N 
ATOM     49  CD2 HIS I   6       3.915  21.218  15.452  0.00  0.00    +0.000 A 
ATOM     50  CE1 HIS I   6       3.062  22.869  16.617  0.00  0.00    +0.000 A 
ATOM     51  NE2 HIS I   6       2.759  21.875  15.803  0.00  0.00    +0.000 NA
ATOM     52  N   GLU I   7       9.330  23.740  15.713  0.00  0.00    +0.000 N 
ATOM     53  CA  GLU I   7      10.775  23.788  15.863  0.00  0.00    +0.000 C 
ATOM     54  C   GLU I   7      11.378  22.724  16.765  0.00  0.00    +0.000 C 
ATOM     55  O   GLU I   7      12.462  22.217  16.484  0.00  0.00    +0.000 OA
ATOM     56  CB  GLU I   7      11.198  25.161  16.377  0.00  0.00    +0.000 C 
ATOM     57  CG  GLU I   7      12.684  25.245  16.684  0.00  0.00    +0.000 C 
ATOM     58  CD  GLU I   7      13.157  26.660  16.930  0.00  0.00    +0.000 C 
ATOM     59  OE2 GLU I   7      12.666  27.296  17.890  0.00  0.00    +0.000 OA
ATOM     60  OE1 GLU I   7      14.021  27.133  16.161  0.00  0.00    +0.000 OA
ATOM     61  H   LEU I   1       1.161  16.769   1.057  0.00  0.00    +0.000 HD
ATOM     62  H   LEU I   1       2.463  17.327   1.933  0.00  0.00    +0.000 HD
ATOM     63  H   LEU I   1       1.424  18.407   1.206  0.00  0.00    +0.000 HD
ATOM     64  H   VAL I   2      -0.436  19.659   3.724  0.00  0.00    +0.000 HD
ATOM     65  H   SER I   3       2.224  21.593   6.837  0.00  0.00    +0.000 HD
ATOM     66  H   SER I   3       2.924  19.953   8.724  0.00  0.00    +0.000 HD
ATOM     67  H   ASP I   4       0.519  22.297  10.848  0.00  0.00    +0.000 HD
ATOM     68  H   TYR I   5       4.072  25.037  11.685  0.00  0.00    +0.000 HD
ATOM     69  H   TYR I   5      12.565  23.501  12.296  0.00  0.00    +0.000 HD
ATOM     70  H   HIS I   6       7.049  22.093  13.273  0.00  0.00    +0.000 HD
ATOM     71  H   HIS I   6       4.864  23.510  17.368  0.00  0.00    +0.000 HD
ATOM     72  H   GLU I   7       8.817  24.569  15.849  0.00  0.00    +0.000 HD
TER 
REMARK  Name = /data/user_data/xianyang/t3-aimnet-affinity-balanced/L2/P36897/pocket.pdb
REMARK                            x       y       z     vdW  Elec       q    Type
REMARK                         _______ _______ _______ _____ _____    ______ ____
ATOM      1  N   GLY J   1      10.490  19.752  17.127  0.00  0.00    +0.000 N 
ATOM      2  CA  GLY J   1      10.512  18.446  16.489  0.00  0.00    +0.000 C 
ATOM      3  C   GLY J   1       9.749  17.393  17.293  0.00  0.00    +0.000 C 
ATOM      4  O   GLY J   1       8.851  17.727  18.079  0.00  0.00    +0.000 OA
ATOM      5  N   SER J   2      10.114  16.121  17.127  0.00  0.00    +0.000 N 
ATOM      6  CA  SER J   2       9.426  15.030  17.829  0.00  0.00    +0.000 C 
ATOM      7  C   SER J   2       9.642  14.983  19.342  0.00  0.00    +0.000 C 
ATOM      8  O   SER J   2      10.634  15.484  19.873  0.00  0.00    +0.000 OA
ATOM      9  CB  SER J   2       9.840  13.674  17.258  0.00  0.00    +0.000 C 
ATOM     10  OG  SER J   2      11.100  13.280  17.779  0.00  0.00    +0.000 OA
ATOM     11  H   GLY J   1      11.010  20.418  16.556  0.00  0.00    +0.000 HD
ATOM     12  H   GLY J   1      10.920  19.687  18.050  0.00  0.00    +0.000 HD
ATOM     13  H   GLY J   1       9.525  20.067  17.223  0.00  0.00    +0.000 HD
ATOM     14  H   SER J   2      10.860  15.909  16.521  0.00  0.00    +0.000 HD
ATOM     15  H   SER J   2      11.041  13.204  18.744  0.00  0.00    +0.000 HD
TER 
REMARK  Name = /data/user_data/xianyang/t3-aimnet-affinity-balanced/L2/P36897/pocket.pdb
REMARK                            x       y       z     vdW  Elec       q    Type
REMARK                         _______ _______ _______ _____ _____    ______ ____
ATOM      1  N   LYS K   1       8.078   9.308  18.220  0.00  0.00    +0.000 N 
ATOM      2  CA  LYS K   1       8.496   9.966  16.983  0.00  0.00    +0.000 C 
ATOM      3  C   LYS K   1       7.324  10.556  16.207  0.00  0.00    +0.000 C 
ATOM      4  O   LYS K   1       7.520  11.383  15.311  0.00  0.00    +0.000 OA
ATOM      5  CB  LYS K   1       9.273   8.993  16.099  0.00  0.00    +0.000 C 
ATOM      6  CG  LYS K   1      10.630   8.606  16.651  0.00  0.00    +0.000 C 
ATOM      7  CD  LYS K   1      11.286   7.572  15.745  0.00  0.00    +0.000 C 
ATOM      8  CE  LYS K   1      12.708   7.253  16.183  0.00  0.00    +0.000 C 
ATOM      9  NZ  LYS K   1      12.765   6.548  17.495  0.00  0.00    +0.000 N 
ATOM     10  N   ASN K   2       6.112  10.135  16.568  0.00  0.00    +0.000 N 
ATOM     11  CA  ASN K   2       4.888  10.623  15.929  0.00  0.00    +0.000 C 
ATOM     12  C   ASN K   2       4.163  11.658  16.761  0.00  0.00    +0.000 C 
ATOM     13  O   ASN K   2       3.009  11.980  16.482  0.00  0.00    +0.000 OA
ATOM     14  CB  ASN K   2       3.925   9.482  15.640  0.00  0.00    +0.000 C 
ATOM     15  CG  ASN K   2       4.353   8.661  14.467  0.00  0.00    +0.000 C 
ATOM     16  OD1 ASN K   2       5.018   9.163  13.556  0.00  0.00    +0.000 OA
ATOM     17  ND2 ASN K   2       3.962   7.395  14.459  0.00  0.00    +0.000 N 
ATOM     18  N   ILE K   3       4.831  12.156  17.794  0.00  0.00    +0.000 N 
ATOM     19  CA  ILE K   3       4.276  13.186  18.661  0.00  0.00    +0.000 C 
ATOM     20  C   ILE K   3       5.257  14.357  18.594  0.00  0.00    +0.000 C 
ATOM     21  O   ILE K   3       6.474  14.166  18.703  0.00  0.00    +0.000 OA
ATOM     22  CB  ILE K   3       4.161  12.696  20.121  0.00  0.00    +0.000 C 
ATOM     23  CG1 ILE K   3       3.054  11.645  20.228  0.00  0.00    +0.000 C 
ATOM     24  CG2 ILE K   3       3.873  13.890  21.070  0.00  0.00    +0.000 C 
ATOM     25  CD1 ILE K   3       3.094  10.851  21.501  0.00  0.00    +0.000 C 
ATOM     26  N   LEU K   4       4.732  15.563  18.399  0.00  0.00    +0.000 N 
ATOM     27  CA  LEU K   4       5.567  16.752  18.299  0.00  0.00    +0.000 C 
ATOM     28  C   LEU K   4       5.315  17.658  19.490  0.00  0.00    +0.000 C 
ATOM     29  O   LEU K   4       4.177  17.797  19.928  0.00  0.00    +0.000 OA
ATOM     30  CB  LEU K   4       5.248  17.498  17.002  0.00  0.00    +0.000 C 
ATOM     31  CG  LEU K   4       5.389  16.640  15.745  0.00  0.00    +0.000 C 
ATOM     32  CD1 LEU K   4       4.188  16.835  14.840  0.00  0.00    +0.000 C 
ATOM     33  CD2 LEU K   4       6.677  16.998  15.045  0.00  0.00    +0.000 C 
ATOM     34  H   LYS K   1       8.897   8.932  18.699  0.00  0.00    +0.000 HD
ATOM     35  H   LYS K   1       7.434   8.548  18.000  0.00  0.00    +0.000 HD
ATOM     36  H   LYS K   1       7.612   9.985  18.824  0.00  0.00    +0.000 HD
ATOM     37  H   LYS K   1      12.367   7.145  18.220  0.00  0.00    +0.000 HD
ATOM     38  H   LYS K   1      13.736   6.336  17.725  0.00  0.00    +0.000 HD
ATOM     39  H   LYS K   1      12.231   5.681  17.438  0.00  0.00    +0.000 HD
ATOM     40  H   ASN K   2       6.037   9.471  17.291  0.00  0.00    +0.000 HD
ATOM     41  H   ASN K   2       4.215   6.807  13.711  0.00  0.00    +0.000 HD
ATOM     42  H   ASN K   2       3.419   7.043  15.201  0.00  0.00    +0.000 HD
ATOM     43  H   ILE K   3       5.736  11.816  17.981  0.00  0.00    +0.000 HD
ATOM     44  H   LEU K   4       3.755  15.654  18.320  0.00  0.00    +0.000 HD
TER 
REMARK  Name = /data/user_data/xianyang/t3-aimnet-affinity-balanced/L2/P36897/pocket.pdb
REMARK                            x       y       z     vdW  Elec       q    Type
REMARK                         _______ _______ _______ _____ _____    ______ ____
ATOM      1  N   ALA L   1       0.752  13.387  15.710  0.00  0.00    +0.000 N 
ATOM      2  CA  ALA L   1       0.969  13.450  14.263  0.00  0.00    +0.000 C 
ATOM      3  C   ALA L   1       0.914  12.062  13.617  0.00  0.00    +0.000 C 
ATOM      4  O   ALA L   1       0.640  11.063  14.281  0.00  0.00    +0.000 OA
ATOM      5  CB  ALA L   1       2.315  14.127  13.952  0.00  0.00    +0.000 C 
ATOM      6  N   ASP L   2       1.173  12.019  12.316  0.00  0.00    +0.000 N 
ATOM      7  CA  ASP L   2       1.150  10.787  11.526  0.00  0.00    +0.000 C 
ATOM      8  C   ASP L   2      -0.153   9.997  11.698  0.00  0.00    +0.000 C 
ATOM      9  O   ASP L   2      -0.208   9.003  12.426  0.00  0.00    +0.000 OA
ATOM     10  CB  ASP L   2       2.333   9.891  11.889  0.00  0.00    +0.000 C 
ATOM     11  CG  ASP L   2       2.615   8.855  10.819  0.00  0.00    +0.000 C 
ATOM     12  OD1 ASP L   2       1.663   8.458  10.110  0.00  0.00    +0.000 OA
ATOM     13  OD2 ASP L   2       3.779   8.433  10.682  0.00  0.00    +0.000 OA
ATOM     14  H   ALA L   1      -0.143  12.936  15.900  0.00  0.00    +0.000 HD
ATOM     15  H   ALA L   1       0.745  14.332  16.094  0.00  0.00    +0.000 HD
ATOM     16  H   ALA L   1       1.503  12.849  16.143  0.00  0.00    +0.000 HD
ATOM     17  H   ASP L   2       1.393  12.862  11.857  0.00  0.00    +0.000 HD
TER 
