REMARK  Name = /data/user_data/xianyang/t3-aimnet-affinity-balanced/L4/Q13724/pocket.pdb
REMARK                            x       y       z     vdW  Elec       q    Type
REMARK                         _______ _______ _______ _____ _____    ______ ____
ATOM      1  N   PRO A   1       0.921   0.369  -2.290  0.00  0.00    +0.000 N 
ATOM      2  CA  PRO A   1       1.968  -0.463  -2.893  0.00  0.00    +0.000 C 
ATOM      3  C   PRO A   1       2.132  -0.253  -4.390  0.00  0.00    +0.000 C 
ATOM      4  O   PRO A   1       3.260  -0.341  -4.893  0.00  0.00    +0.000 OA
ATOM      5  CB  PRO A   1       1.515  -1.892  -2.574  0.00  0.00    +0.000 C 
ATOM      6  CG  PRO A   1       0.051  -1.792  -2.330  0.00  0.00    +0.000 C 
ATOM      7  CD  PRO A   1      -0.193  -0.433  -1.760  0.00  0.00    +0.000 C 
ATOM      8  H   PRO A   1       0.558   1.006  -3.000  0.00  0.00    +0.000 HD
ATOM      9  H   PRO A   1       1.337   0.879  -1.511  0.00  0.00    +0.000 HD
TER 
REMARK  Name = /data/user_data/xianyang/t3-aimnet-affinity-balanced/L4/Q13724/pocket.pdb
REMARK                            x       y       z     vdW  Elec       q    Type
REMARK                         _______ _______ _______ _____ _____    ______ ____
ATOM      1  N   SER B   1      -0.908   1.704 -10.015  0.00  0.00    +0.000 N 
ATOM      2  CA  SER B   1      -1.665   1.199 -11.157  0.00  0.00    +0.000 C 
ATOM      3  C   SER B   1      -2.642   0.099 -10.783  0.00  0.00    +0.000 C 
ATOM      4  O   SER B   1      -3.639  -0.097 -11.486  0.00  0.00    +0.000 OA
ATOM      5  CB  SER B   1      -0.707   0.697 -12.235  0.00  0.00    +0.000 C 
ATOM      6  OG  SER B   1       0.078  -0.380 -11.753  0.00  0.00    +0.000 OA
ATOM      7  N   PHE B   2      -2.391  -0.636  -9.732  0.00  0.00    +0.000 N 
ATOM      8  CA  PHE B   2      -3.168  -1.837  -9.435  0.00  0.00    +0.000 C 
ATOM      9  C   PHE B   2      -3.706  -1.882  -8.010  0.00  0.00    +0.000 C 
ATOM     10  O   PHE B   2      -4.796  -2.416  -7.794  0.00  0.00    +0.000 OA
ATOM     11  CB  PHE B   2      -2.314  -3.077  -9.712  0.00  0.00    +0.000 C 
ATOM     12  CG  PHE B   2      -3.097  -4.346  -9.896  0.00  0.00    +0.000 A 
ATOM     13  CD1 PHE B   2      -4.038  -4.450 -10.906  0.00  0.00    +0.000 A 
ATOM     14  CD2 PHE B   2      -2.876  -5.435  -9.072  0.00  0.00    +0.000 A 
ATOM     15  CE1 PHE B   2      -4.754  -5.618 -11.090  0.00  0.00    +0.000 A 
ATOM     16  CE2 PHE B   2      -3.588  -6.608  -9.247  0.00  0.00    +0.000 A 
ATOM     17  CZ  PHE B   2      -4.529  -6.695 -10.261  0.00  0.00    +0.000 A 
ATOM     18  N   PHE B   3      -2.971  -1.368  -7.027  0.00  0.00    +0.000 N 
ATOM     19  CA  PHE B   3      -3.401  -1.394  -5.639  0.00  0.00    +0.000 C 
ATOM     20  C   PHE B   3      -3.272  -0.008  -5.017  0.00  0.00    +0.000 C 
ATOM     21  O   PHE B   3      -2.543   0.176  -4.035  0.00  0.00    +0.000 OA
ATOM     22  CB  PHE B   3      -2.588  -2.408  -4.829  0.00  0.00    +0.000 C 
ATOM     23  CG  PHE B   3      -2.680  -3.824  -5.329  0.00  0.00    +0.000 A 
ATOM     24  CD2 PHE B   3      -3.881  -4.512  -5.263  0.00  0.00    +0.000 A 
ATOM     25  CD1 PHE B   3      -1.566  -4.451  -5.869  0.00  0.00    +0.000 A 
ATOM     26  CE2 PHE B   3      -3.966  -5.818  -5.729  0.00  0.00    +0.000 A 
ATOM     27  CE1 PHE B   3      -1.639  -5.758  -6.320  0.00  0.00    +0.000 A 
ATOM     28  CZ  PHE B   3      -2.832  -6.444  -6.243  0.00  0.00    +0.000 A 
ATOM     29  H   SER B   1      -0.271   2.437 -10.327  0.00  0.00    +0.000 HD
ATOM     30  H   SER B   1      -0.372   0.943  -9.599  0.00  0.00    +0.000 HD
ATOM     31  H   SER B   1      -1.552   2.085  -9.322  0.00  0.00    +0.000 HD
ATOM     32  H   SER B   1      -0.502  -1.114 -11.498  0.00  0.00    +0.000 HD
ATOM     33  H   PHE B   2      -1.661  -0.374  -9.126  0.00  0.00    +0.000 HD
ATOM     34  H   PHE B   3      -2.105  -0.955  -7.248  0.00  0.00    +0.000 HD
TER 
REMARK  Name = /data/user_data/xianyang/t3-aimnet-affinity-balanced/L4/Q13724/pocket.pdb
REMARK                            x       y       z     vdW  Elec       q    Type
REMARK                         _______ _______ _______ _____ _____    ______ ____
ATOM      1  N   ARG C   1      -4.400   1.854  -2.725  0.00  0.00    +0.000 N 
ATOM      2  CA  ARG C   1      -5.153   1.921  -1.483  0.00  0.00    +0.000 C 
ATOM      3  C   ARG C   1      -4.289   1.336  -0.375  0.00  0.00    +0.000 C 
ATOM      4  O   ARG C   1      -3.246   0.740  -0.641  0.00  0.00    +0.000 OA
ATOM      5  CB  ARG C   1      -6.494   1.172  -1.603  0.00  0.00    +0.000 C 
ATOM      6  CG  ARG C   1      -6.341  -0.270  -2.034  0.00  0.00    +0.000 C 
ATOM      7  CD  ARG C   1      -7.690  -0.895  -2.338  0.00  0.00    +0.000 C 
ATOM      8  NE  ARG C   1      -7.561  -2.271  -2.809  0.00  0.00    +0.000 N 
ATOM      9  CZ  ARG C   1      -7.359  -2.613  -4.084  0.00  0.00    +0.000 C 
ATOM     10  NH1 ARG C   1      -7.282  -1.674  -5.021  0.00  0.00    +0.000 N 
ATOM     11  NH2 ARG C   1      -7.245  -3.876  -4.424  0.00  0.00    +0.000 N 
ATOM     12  H   ARG C   1      -4.961   2.242  -3.484  0.00  0.00    +0.000 HD
ATOM     13  H   ARG C   1      -4.173   0.882  -2.933  0.00  0.00    +0.000 HD
ATOM     14  H   ARG C   1      -3.539   2.392  -2.630  0.00  0.00    +0.000 HD
ATOM     15  H   ARG C   1      -7.627  -2.993  -2.144  0.00  0.00    +0.000 HD
ATOM     16  H   ARG C   1      -7.133  -1.927  -5.961  0.00  0.00    +0.000 HD
ATOM     17  H   ARG C   1      -7.374  -0.725  -4.776  0.00  0.00    +0.000 HD
ATOM     18  H   ARG C   1      -7.096  -4.121  -5.366  0.00  0.00    +0.000 HD
ATOM     19  H   ARG C   1      -7.308  -4.578  -3.737  0.00  0.00    +0.000 HD
TER 
REMARK  Name = /data/user_data/xianyang/t3-aimnet-affinity-balanced/L4/Q13724/pocket.pdb
REMARK                            x       y       z     vdW  Elec       q    Type
REMARK                         _______ _______ _______ _____ _____    ______ ____
ATOM      1  N   PHE D   1      -2.879  -1.042   2.482  0.00  0.00    +0.000 N 
ATOM      2  CA  PHE D   1      -2.782  -2.446   2.874  0.00  0.00    +0.000 C 
ATOM      3  C   PHE D   1      -1.993  -2.511   4.177  0.00  0.00    +0.000 C 
ATOM      4  O   PHE D   1      -0.899  -1.953   4.276  0.00  0.00    +0.000 OA
ATOM      5  CB  PHE D   1      -2.092  -3.284   1.799  0.00  0.00    +0.000 C 
ATOM      6  CG  PHE D   1      -2.960  -3.571   0.604  0.00  0.00    +0.000 A 
ATOM      7  CD1 PHE D   1      -3.128  -2.632  -0.393  0.00  0.00    +0.000 A 
ATOM      8  CD2 PHE D   1      -3.601  -4.792   0.478  0.00  0.00    +0.000 A 
ATOM      9  CE1 PHE D   1      -3.918  -2.898  -1.495  0.00  0.00    +0.000 A 
ATOM     10  CE2 PHE D   1      -4.388  -5.067  -0.625  0.00  0.00    +0.000 A 
ATOM     11  CZ  PHE D   1      -4.548  -4.116  -1.610  0.00  0.00    +0.000 A 
ATOM     12  H   PHE D   1      -3.404  -0.968   1.610  0.00  0.00    +0.000 HD
ATOM     13  H   PHE D   1      -1.942  -0.661   2.349  0.00  0.00    +0.000 HD
ATOM     14  H   PHE D   1      -3.359  -0.517   3.213  0.00  0.00    +0.000 HD
TER 
REMARK  Name = /data/user_data/xianyang/t3-aimnet-affinity-balanced/L4/Q13724/pocket.pdb
REMARK                            x       y       z     vdW  Elec       q    Type
REMARK                         _______ _______ _______ _____ _____    ______ ____
ATOM      1  N   TRP E   1      -0.252  -4.776   6.213  0.00  0.00    +0.000 N 
ATOM      2  CA  TRP E   1       1.117  -5.215   6.454  0.00  0.00    +0.000 C 
ATOM      3  C   TRP E   1       2.097  -4.576   5.487  0.00  0.00    +0.000 C 
ATOM      4  O   TRP E   1       3.282  -4.439   5.815  0.00  0.00    +0.000 OA
ATOM      5  CB  TRP E   1       1.221  -6.743   6.481  0.00  0.00    +0.000 C 
ATOM      6  CG  TRP E   1       1.443  -7.462   5.184  0.00  0.00    +0.000 C 
ATOM      7  CD1 TRP E   1       0.718  -7.367   4.036  0.00  0.00    +0.000 C 
ATOM      8  CD2 TRP E   1       2.462  -8.462   4.937  0.00  0.00    +0.000 C 
ATOM      9  NE1 TRP E   1       1.219  -8.229   3.083  0.00  0.00    +0.000 NA
ATOM     10  CE2 TRP E   1       2.288  -8.911   3.614  0.00  0.00    +0.000 C 
ATOM     11  CE3 TRP E   1       3.486  -9.014   5.718  0.00  0.00    +0.000 C 
ATOM     12  CZ2 TRP E   1       3.099  -9.898   3.048  0.00  0.00    +0.000 C 
ATOM     13  CZ3 TRP E   1       4.292  -9.984   5.155  0.00  0.00    +0.000 C 
ATOM     14  CH2 TRP E   1       4.098 -10.415   3.839  0.00  0.00    +0.000 C 
ATOM     15  N   ASP E   2       1.631  -4.146   4.327  0.00  0.00    +0.000 N 
ATOM     16  CA  ASP E   2       2.494  -3.389   3.425  0.00  0.00    +0.000 C 
ATOM     17  C   ASP E   2       2.959  -2.095   4.080  0.00  0.00    +0.000 C 
ATOM     18  O   ASP E   2       4.108  -1.677   3.894  0.00  0.00    +0.000 OA
ATOM     19  CB  ASP E   2       1.762  -3.062   2.118  0.00  0.00    +0.000 C 
ATOM     20  CG  ASP E   2       1.504  -4.276   1.258  0.00  0.00    +0.000 C 
ATOM     21  OD2 ASP E   2       0.816  -5.208   1.727  0.00  0.00    +0.000 OA
ATOM     22  OD1 ASP E   2       1.964  -4.282   0.090  0.00  0.00    +0.000 OA
ATOM     23  H   TRP E   1      -0.285  -3.757   6.201  0.00  0.00    +0.000 HD
ATOM     24  H   TRP E   1      -0.857  -5.127   6.955  0.00  0.00    +0.000 HD
ATOM     25  H   TRP E   1      -0.572  -5.137   5.314  0.00  0.00    +0.000 HD
ATOM     26  H   ASP E   2       0.700  -4.337   4.071  0.00  0.00    +0.000 HD
TER 
REMARK  Name = /data/user_data/xianyang/t3-aimnet-affinity-balanced/L4/Q13724/pocket.pdb
REMARK                            x       y       z     vdW  Elec       q    Type
REMARK                         _______ _______ _______ _____ _____    ______ ____
ATOM      1  N   ARG F   1      -7.437  -5.351   6.987  0.00  0.00    +0.000 N 
ATOM      2  CA  ARG F   1      -6.148  -5.527   6.328  0.00  0.00    +0.000 C 
ATOM      3  C   ARG F   1      -6.067  -4.761   5.016  0.00  0.00    +0.000 C 
ATOM      4  O   ARG F   1      -4.961  -4.456   4.550  0.00  0.00    +0.000 OA
ATOM      5  CB  ARG F   1      -5.858  -7.009   6.089  0.00  0.00    +0.000 C 
ATOM      6  CG  ARG F   1      -6.895  -7.753   5.276  0.00  0.00    +0.000 C 
ATOM      7  CD  ARG F   1      -6.501  -9.226   5.105  0.00  0.00    +0.000 C 
ATOM      8  NE  ARG F   1      -5.473  -9.387   4.087  0.00  0.00    +0.000 N 
ATOM      9  CZ  ARG F   1      -5.712  -9.628   2.802  0.00  0.00    +0.000 C 
ATOM     10  NH2 ARG F   1      -6.955  -9.750   2.361  0.00  0.00    +0.000 N 
ATOM     11  NH1 ARG F   1      -4.707  -9.753   1.956  0.00  0.00    +0.000 N 
ATOM     12  N   GLU F   2      -7.203  -4.440   4.411  0.00  0.00    +0.000 N 
ATOM     13  CA  GLU F   2      -7.254  -3.720   3.145  0.00  0.00    +0.000 C 
ATOM     14  C   GLU F   2      -8.278  -2.610   3.303  0.00  0.00    +0.000 C 
ATOM     15  O   GLU F   2      -9.455  -2.881   3.556  0.00  0.00    +0.000 OA
ATOM     16  CB  GLU F   2      -7.624  -4.669   2.009  0.00  0.00    +0.000 C 
ATOM     17  CG  GLU F   2      -7.567  -4.059   0.620  0.00  0.00    +0.000 C 
ATOM     18  CD  GLU F   2      -7.796  -5.094  -0.473  0.00  0.00    +0.000 C 
ATOM     19  OE2 GLU F   2      -7.660  -6.311  -0.198  0.00  0.00    +0.000 OA
ATOM     20  OE1 GLU F   2      -8.115  -4.696  -1.609  0.00  0.00    +0.000 OA
ATOM     21  H   ARG F   1      -7.610  -4.357   7.136  0.00  0.00    +0.000 HD
ATOM     22  H   ARG F   1      -7.428  -5.833   7.886  0.00  0.00    +0.000 HD
ATOM     23  H   ARG F   1      -8.175  -5.740   6.400  0.00  0.00    +0.000 HD
ATOM     24  H   ARG F   1      -4.533  -9.312   4.371  0.00  0.00    +0.000 HD
ATOM     25  H   ARG F   1      -7.124  -9.929   1.408  0.00  0.00    +0.000 HD
ATOM     26  H   ARG F   1      -7.710  -9.662   2.987  0.00  0.00    +0.000 HD
ATOM     27  H   ARG F   1      -4.884  -9.932   1.004  0.00  0.00    +0.000 HD
ATOM     28  H   ARG F   1      -3.780  -9.668   2.277  0.00  0.00    +0.000 HD
ATOM     29  H   GLU F   2      -8.051  -4.700   4.837  0.00  0.00    +0.000 HD
TER 
REMARK  Name = /data/user_data/xianyang/t3-aimnet-affinity-balanced/L4/Q13724/pocket.pdb
REMARK                            x       y       z     vdW  Elec       q    Type
REMARK                         _______ _______ _______ _____ _____    ______ ____
ATOM      1  N   ARG G   1     -12.390   0.811  -8.078  0.00  0.00    +0.000 N 
ATOM      2  CA  ARG G   1     -11.186   0.177  -8.603  0.00  0.00    +0.000 C 
ATOM      3  C   ARG G   1     -11.022  -1.273  -8.158  0.00  0.00    +0.000 C 
ATOM      4  O   ARG G   1     -10.036  -1.912  -8.535  0.00  0.00    +0.000 OA
ATOM      5  CB  ARG G   1      -9.958   0.976  -8.182  0.00  0.00    +0.000 C 
ATOM      6  CG  ARG G   1      -9.806   2.315  -8.891  0.00  0.00    +0.000 C 
ATOM      7  CD  ARG G   1      -9.161   2.139 -10.250  0.00  0.00    +0.000 C 
ATOM      8  NE  ARG G   1      -7.736   1.814 -10.133  0.00  0.00    +0.000 N 
ATOM      9  CZ  ARG G   1      -6.979   1.379 -11.124  0.00  0.00    +0.000 C 
ATOM     10  NH1 ARG G   1      -7.487   1.189 -12.330  0.00  0.00    +0.000 N 
ATOM     11  NH2 ARG G   1      -5.690   1.123 -10.914  0.00  0.00    +0.000 N 
ATOM     12  N   VAL G   2     -11.952  -1.806  -7.368  0.00  0.00    +0.000 N 
ATOM     13  CA  VAL G   2     -11.788  -3.114  -6.744  0.00  0.00    +0.000 C 
ATOM     14  C   VAL G   2     -12.948  -4.015  -7.135  0.00  0.00    +0.000 C 
ATOM     15  O   VAL G   2     -14.107  -3.597  -7.052  0.00  0.00    +0.000 OA
ATOM     16  CB  VAL G   2     -11.708  -2.988  -5.211  0.00  0.00    +0.000 C 
ATOM     17  CG2 VAL G   2     -11.485  -4.350  -4.571  0.00  0.00    +0.000 C 
ATOM     18  CG1 VAL G   2     -10.600  -2.017  -4.824  0.00  0.00    +0.000 C 
ATOM     19  N   PRO G   3     -12.664  -5.249  -7.550  0.00  0.00    +0.000 N 
ATOM     20  CA  PRO G   3     -13.761  -6.178  -7.830  0.00  0.00    +0.000 C 
ATOM     21  C   PRO G   3     -14.616  -6.406  -6.591  0.00  0.00    +0.000 C 
ATOM     22  O   PRO G   3     -14.114  -6.370  -5.465  0.00  0.00    +0.000 OA
ATOM     23  CB  PRO G   3     -13.043  -7.462  -8.255  0.00  0.00    +0.000 C 
ATOM     24  CG  PRO G   3     -11.695  -7.019  -8.706  0.00  0.00    +0.000 C 
ATOM     25  CD  PRO G   3     -11.344  -5.839  -7.850  0.00  0.00    +0.000 C 
ATOM     26  H   ARG G   1     -12.440   1.774  -8.411  0.00  0.00    +0.000 HD
ATOM     27  H   ARG G   1     -12.361   0.805  -7.058  0.00  0.00    +0.000 HD
ATOM     28  H   ARG G   1     -13.211   0.298  -8.397  0.00  0.00    +0.000 HD
ATOM     29  H   ARG G   1      -7.313   1.928  -9.252  0.00  0.00    +0.000 HD
ATOM     30  H   ARG G   1      -6.912   0.864 -13.061  0.00  0.00    +0.000 HD
ATOM     31  H   ARG G   1      -8.440   1.372 -12.497  0.00  0.00    +0.000 HD
ATOM     32  H   ARG G   1      -5.126   0.799 -11.653  0.00  0.00    +0.000 HD
ATOM     33  H   ARG G   1      -5.301   1.258 -10.020  0.00  0.00    +0.000 HD
ATOM     34  H   VAL G   2     -12.779  -1.299  -7.199  0.00  0.00    +0.000 HD
TER 
REMARK  Name = /data/user_data/xianyang/t3-aimnet-affinity-balanced/L4/Q13724/pocket.pdb
REMARK                            x       y       z     vdW  Elec       q    Type
REMARK                         _______ _______ _______ _____ _____    ______ ____
ATOM      1  N   PHE H   1     -13.610  -8.515  -3.427  0.00  0.00    +0.000 N 
ATOM      2  CA  PHE H   1     -12.526  -8.076  -2.557  0.00  0.00    +0.000 C 
ATOM      3  C   PHE H   1     -12.895  -6.872  -1.697  0.00  0.00    +0.000 C 
ATOM      4  O   PHE H   1     -12.045  -6.383  -0.946  0.00  0.00    +0.000 OA
ATOM      5  CB  PHE H   1     -11.278  -7.752  -3.381  0.00  0.00    +0.000 C 
ATOM      6  CG  PHE H   1     -10.723  -8.930  -4.134  0.00  0.00    +0.000 A 
ATOM      7  CD2 PHE H   1     -10.090  -9.956  -3.459  0.00  0.00    +0.000 A 
ATOM      8  CD1 PHE H   1     -10.835  -9.009  -5.511  0.00  0.00    +0.000 A 
ATOM      9  CE2 PHE H   1      -9.574 -11.045  -4.146  0.00  0.00    +0.000 A 
ATOM     10  CE1 PHE H   1     -10.322 -10.091  -6.204  0.00  0.00    +0.000 A 
ATOM     11  CZ  PHE H   1      -9.694 -11.109  -5.520  0.00  0.00    +0.000 A 
ATOM     12  H   PHE H   1     -13.303  -9.319  -3.974  0.00  0.00    +0.000 HD
ATOM     13  H   PHE H   1     -13.870  -7.755  -4.056  0.00  0.00    +0.000 HD
ATOM     14  H   PHE H   1     -14.416  -8.777  -2.860  0.00  0.00    +0.000 HD
TER 
REMARK  Name = /data/user_data/xianyang/t3-aimnet-affinity-balanced/L4/Q13724/pocket.pdb
REMARK                            x       y       z     vdW  Elec       q    Type
REMARK                         _______ _______ _______ _____ _____    ______ ____
ATOM      1  N   LYS I   1      -5.909 -20.992   0.210  0.00  0.00    +0.000 N 
ATOM      2  CA  LYS I   1      -5.205 -19.740   0.399  0.00  0.00    +0.000 C 
ATOM      3  C   LYS I   1      -5.196 -19.333   1.866  0.00  0.00    +0.000 C 
ATOM      4  O   LYS I   1      -6.062 -19.728   2.650  0.00  0.00    +0.000 OA
ATOM      5  CB  LYS I   1      -5.847 -18.636  -0.441  0.00  0.00    +0.000 C 
ATOM      6  CG  LYS I   1      -5.706 -18.839  -1.935  0.00  0.00    +0.000 C 
ATOM      7  CD  LYS I   1      -6.387 -17.735  -2.703  0.00  0.00    +0.000 C 
ATOM      8  CE  LYS I   1      -6.254 -17.936  -4.201  0.00  0.00    +0.000 C 
ATOM      9  NZ  LYS I   1      -6.994 -16.897  -4.969  0.00  0.00    +0.000 N 
ATOM     10  H   LYS I   1      -5.900 -21.241  -0.779  0.00  0.00    +0.000 HD
ATOM     11  H   LYS I   1      -6.873 -20.891   0.527  0.00  0.00    +0.000 HD
ATOM     12  H   LYS I   1      -5.449 -21.725   0.749  0.00  0.00    +0.000 HD
ATOM     13  H   LYS I   1      -6.612 -15.977  -4.751  0.00  0.00    +0.000 HD
ATOM     14  H   LYS I   1      -7.981 -16.924  -4.714  0.00  0.00    +0.000 HD
ATOM     15  H   LYS I   1      -6.896 -17.078  -5.968  0.00  0.00    +0.000 HD
TER 
REMARK  Name = /data/user_data/xianyang/t3-aimnet-affinity-balanced/L4/Q13724/pocket.pdb
REMARK                            x       y       z     vdW  Elec       q    Type
REMARK                         _______ _______ _______ _____ _____    ______ ____
ATOM      1  N   LEU J   1      -4.867 -15.764   2.901  0.00  0.00    +0.000 N 
ATOM      2  CA  LEU J   1      -4.722 -14.349   2.595  0.00  0.00    +0.000 C 
ATOM      3  C   LEU J   1      -4.374 -13.511   3.821  0.00  0.00    +0.000 C 
ATOM      4  O   LEU J   1      -3.608 -12.548   3.702  0.00  0.00    +0.000 OA
ATOM      5  CB  LEU J   1      -5.993 -13.818   1.926  0.00  0.00    +0.000 C 
ATOM      6  CG  LEU J   1      -6.326 -14.426   0.563  0.00  0.00    +0.000 C 
ATOM      7  CD2 LEU J   1      -7.618 -13.839   0.013  0.00  0.00    +0.000 C 
ATOM      8  CD1 LEU J   1      -5.185 -14.221  -0.419  0.00  0.00    +0.000 C 
ATOM      9  H   LEU J   1      -5.099 -16.274   2.049  0.00  0.00    +0.000 HD
ATOM     10  H   LEU J   1      -5.613 -15.889   3.585  0.00  0.00    +0.000 HD
ATOM     11  H   LEU J   1      -3.991 -16.121   3.283  0.00  0.00    +0.000 HD
TER 
REMARK  Name = /data/user_data/xianyang/t3-aimnet-affinity-balanced/L4/Q13724/pocket.pdb
REMARK                            x       y       z     vdW  Elec       q    Type
REMARK                         _______ _______ _______ _____ _____    ______ ____
ATOM      1  N   GLY K   1      -0.649 -12.633   4.468  0.00  0.00    +0.000 N 
ATOM      2  CA  GLY K   1       0.110 -11.877   3.496  0.00  0.00    +0.000 C 
ATOM      3  C   GLY K   1       0.887 -12.737   2.528  0.00  0.00    +0.000 C 
ATOM      4  O   GLY K   1       1.311 -12.253   1.476  0.00  0.00    +0.000 OA
ATOM      5  H   GLY K   1      -1.146 -11.991   5.085  0.00  0.00    +0.000 HD
ATOM      6  H   GLY K   1      -0.015 -13.212   5.019  0.00  0.00    +0.000 HD
ATOM      7  H   GLY K   1      -1.321 -13.229   3.985  0.00  0.00    +0.000 HD
TER 
REMARK  Name = /data/user_data/xianyang/t3-aimnet-affinity-balanced/L4/Q13724/pocket.pdb
REMARK                            x       y       z     vdW  Elec       q    Type
REMARK                         _______ _______ _______ _____ _____    ______ ____
ATOM      1  N   ASP L   1      -0.103 -15.130   0.440  0.00  0.00    +0.000 N 
ATOM      2  CA  ASP L   1      -1.374 -15.556  -0.135  0.00  0.00    +0.000 C 
ATOM      3  C   ASP L   1      -1.494 -17.062  -0.366  0.00  0.00    +0.000 C 
ATOM      4  O   ASP L   1      -2.249 -17.754   0.324  0.00  0.00    +0.000 OA
ATOM      5  CB  ASP L   1      -1.604 -14.821  -1.458  0.00  0.00    +0.000 C 
ATOM      6  CG  ASP L   1      -1.625 -13.310  -1.274  0.00  0.00    +0.000 C 
ATOM      7  OD2 ASP L   1      -1.566 -12.835  -0.122  0.00  0.00    +0.000 OA
ATOM      8  OD1 ASP L   1      -1.684 -12.600  -2.299  0.00  0.00    +0.000 OA
ATOM      9  N   ASP L   2      -0.757 -17.577  -1.358  0.00  0.00    +0.000 N 
ATOM     10  CA  ASP L   2      -0.873 -18.974  -1.752  0.00  0.00    +0.000 C 
ATOM     11  C   ASP L   2       0.325 -19.804  -1.304  0.00  0.00    +0.000 C 
ATOM     12  O   ASP L   2       0.561 -20.892  -1.843  0.00  0.00    +0.000 OA
ATOM     13  CB  ASP L   2      -1.091 -19.102  -3.266  0.00  0.00    +0.000 C 
ATOM     14  CG  ASP L   2       0.109 -18.672  -4.089  0.00  0.00    +0.000 C 
ATOM     15  OD2 ASP L   2       1.066 -18.101  -3.522  0.00  0.00    +0.000 OA
ATOM     16  OD1 ASP L   2       0.101 -18.910  -5.316  0.00  0.00    +0.000 OA
ATOM     17  H   ASP L   1      -0.107 -14.117   0.561  0.00  0.00    +0.000 HD
ATOM     18  H   ASP L   1       0.659 -15.395  -0.185  0.00  0.00    +0.000 HD
ATOM     19  H   ASP L   1       0.028 -15.580   1.346  0.00  0.00    +0.000 HD
ATOM     20  H   ASP L   2      -0.120 -16.996  -1.833  0.00  0.00    +0.000 HD
TER 
REMARK  Name = /data/user_data/xianyang/t3-aimnet-affinity-balanced/L4/Q13724/pocket.pdb
REMARK                            x       y       z     vdW  Elec       q    Type
REMARK                         _______ _______ _______ _____ _____    ______ ____
ATOM      1  N   ASP M   1      -4.953 -19.191 -11.614  0.00  0.00    +0.000 N 
ATOM      2  CA  ASP M   1      -4.048 -18.451 -10.746  0.00  0.00    +0.000 C 
ATOM      3  C   ASP M   1      -2.645 -19.031 -10.847  0.00  0.00    +0.000 C 
ATOM      4  O   ASP M   1      -2.408 -20.163 -10.415  0.00  0.00    +0.000 OA
ATOM      5  CB  ASP M   1      -4.523 -18.492  -9.292  0.00  0.00    +0.000 C 
ATOM      6  CG  ASP M   1      -5.862 -17.810  -9.080  0.00  0.00    +0.000 C 
ATOM      7  OD1 ASP M   1      -6.259 -16.992  -9.934  0.00  0.00    +0.000 OA
ATOM      8  OD2 ASP M   1      -6.509 -18.090  -8.051  0.00  0.00    +0.000 OA
ATOM      9  H   ASP M   1      -4.614 -19.148 -12.575  0.00  0.00    +0.000 HD
ATOM     10  H   ASP M   1      -5.885 -18.779 -11.564  0.00  0.00    +0.000 HD
ATOM     11  H   ASP M   1      -4.994 -20.164 -11.312  0.00  0.00    +0.000 HD
TER 
REMARK  Name = /data/user_data/xianyang/t3-aimnet-affinity-balanced/L4/Q13724/pocket.pdb
REMARK                            x       y       z     vdW  Elec       q    Type
REMARK                         _______ _______ _______ _____ _____    ______ ____
ATOM      1  N   TYR N   1       2.234 -17.592  -6.995  0.00  0.00    +0.000 N 
ATOM      2  CA  TYR N   1       2.449 -16.229  -6.525  0.00  0.00    +0.000 C 
ATOM      3  C   TYR N   1       3.546 -16.189  -5.472  0.00  0.00    +0.000 C 
ATOM      4  O   TYR N   1       4.547 -15.482  -5.647  0.00  0.00    +0.000 OA
ATOM      5  CB  TYR N   1       1.130 -15.672  -5.972  0.00  0.00    +0.000 C 
ATOM      6  CG  TYR N   1       1.039 -14.170  -5.913  0.00  0.00    +0.000 A 
ATOM      7  CD1 TYR N   1       1.182 -13.394  -7.057  0.00  0.00    +0.000 A 
ATOM      8  CD2 TYR N   1       0.762 -13.519  -4.715  0.00  0.00    +0.000 A 
ATOM      9  CE1 TYR N   1       1.076 -12.018  -6.999  0.00  0.00    +0.000 A 
ATOM     10  CE2 TYR N   1       0.650 -12.141  -4.655  0.00  0.00    +0.000 A 
ATOM     11  CZ  TYR N   1       0.806 -11.398  -5.802  0.00  0.00    +0.000 A 
ATOM     12  OH  TYR N   1       0.693 -10.026  -5.754  0.00  0.00    +0.000 OA
ATOM     13  N   TRP N   2       3.395 -16.961  -4.396  0.00  0.00    +0.000 N 
ATOM     14  CA  TRP N   2       4.414 -17.061  -3.349  0.00  0.00    +0.000 C 
ATOM     15  C   TRP N   2       5.129 -18.404  -3.392  0.00  0.00    +0.000 C 
ATOM     16  O   TRP N   2       5.657 -18.867  -2.377  0.00  0.00    +0.000 OA
ATOM     17  CB  TRP N   2       3.794 -16.838  -1.970  0.00  0.00    +0.000 C 
ATOM     18  CG  TRP N   2       3.428 -15.409  -1.708  0.00  0.00    +0.000 C 
ATOM     19  CD1 TRP N   2       2.224 -14.817  -1.980  0.00  0.00    +0.000 C 
ATOM     20  CD2 TRP N   2       4.257 -14.395  -1.142  0.00  0.00    +0.000 C 
ATOM     21  NE1 TRP N   2       2.261 -13.490  -1.606  0.00  0.00    +0.000 NA
ATOM     22  CE2 TRP N   2       3.492 -13.208  -1.090  0.00  0.00    +0.000 C 
ATOM     23  CE3 TRP N   2       5.575 -14.378  -0.671  0.00  0.00    +0.000 C 
ATOM     24  CZ2 TRP N   2       4.003 -12.018  -0.580  0.00  0.00    +0.000 C 
ATOM     25  CZ3 TRP N   2       6.079 -13.189  -0.165  0.00  0.00    +0.000 C 
ATOM     26  CH2 TRP N   2       5.296 -12.030  -0.125  0.00  0.00    +0.000 C 
ATOM     27  H   TYR N   1       1.496 -17.596  -7.699  0.00  0.00    +0.000 HD
ATOM     28  H   TYR N   1       1.959 -18.183  -6.210  0.00  0.00    +0.000 HD
ATOM     29  H   TYR N   1       3.097 -17.951  -7.404  0.00  0.00    +0.000 HD
ATOM     30  H   TYR N   1       0.799  -9.520  -6.535  0.00  0.00    +0.000 HD
ATOM     31  H   TRP N   2       2.566 -17.484  -4.301  0.00  0.00    +0.000 HD
TER 
REMARK  Name = /data/user_data/xianyang/t3-aimnet-affinity-balanced/L4/Q13724/pocket.pdb
REMARK                            x       y       z     vdW  Elec       q    Type
REMARK                         _______ _______ _______ _____ _____    ______ ____
ATOM      1  N   TRP O   1      10.743 -11.858  -3.384  0.00  0.00    +0.000 N 
ATOM      2  CA  TRP O   1       9.954 -10.754  -2.838  0.00  0.00    +0.000 C 
ATOM      3  C   TRP O   1      10.863  -9.873  -1.995  0.00  0.00    +0.000 C 
ATOM      4  O   TRP O   1      11.544 -10.351  -1.085  0.00  0.00    +0.000 OA
ATOM      5  CB  TRP O   1       8.787 -11.273  -2.004  0.00  0.00    +0.000 C 
ATOM      6  CG  TRP O   1       7.761 -12.007  -2.815  0.00  0.00    +0.000 C 
ATOM      7  CD1 TRP O   1       7.836 -13.293  -3.269  0.00  0.00    +0.000 C 
ATOM      8  CD2 TRP O   1       6.514 -11.489  -3.280  0.00  0.00    +0.000 A 
ATOM      9  NE1 TRP O   1       6.707 -13.605  -3.996  0.00  0.00    +0.000 NA
ATOM     10  CE2 TRP O   1       5.884 -12.520  -4.012  0.00  0.00    +0.000 A 
ATOM     11  CE3 TRP O   1       5.863 -10.252  -3.152  0.00  0.00    +0.000 A 
ATOM     12  CZ2 TRP O   1       4.638 -12.357  -4.605  0.00  0.00    +0.000 A 
ATOM     13  CZ3 TRP O   1       4.626 -10.091  -3.740  0.00  0.00    +0.000 A 
ATOM     14  CH2 TRP O   1       4.024 -11.134  -4.458  0.00  0.00    +0.000 A 
ATOM     15  H   TRP O   1      10.143 -12.456  -3.952  0.00  0.00    +0.000 HD
ATOM     16  H   TRP O   1      11.140 -12.403  -2.619  0.00  0.00    +0.000 HD
ATOM     17  H   TRP O   1      11.496 -11.485  -3.962  0.00  0.00    +0.000 HD
TER 
REMARK  Name = /data/user_data/xianyang/t3-aimnet-affinity-balanced/L4/Q13724/pocket.pdb
REMARK                            x       y       z     vdW  Elec       q    Type
REMARK                         _______ _______ _______ _____ _____    ______ ____
ATOM      1  N   GLU P   1       6.681  -5.789  -8.607  0.00  0.00    +0.000 N 
ATOM      2  CA  GLU P   1       6.140  -6.402  -7.399  0.00  0.00    +0.000 C 
ATOM      3  C   GLU P   1       7.002  -7.561  -6.922  0.00  0.00    +0.000 C 
ATOM      4  O   GLU P   1       7.237  -7.720  -5.718  0.00  0.00    +0.000 OA
ATOM      5  CB  GLU P   1       4.711  -6.872  -7.668  0.00  0.00    +0.000 C 
ATOM      6  CG  GLU P   1       4.024  -7.488  -6.463  0.00  0.00    +0.000 C 
ATOM      7  CD  GLU P   1       2.629  -7.995  -6.796  0.00  0.00    +0.000 C 
ATOM      8  OE1 GLU P   1       2.256  -7.987  -7.992  0.00  0.00    +0.000 OA
ATOM      9  OE2 GLU P   1       1.911  -8.399  -5.866  0.00  0.00    +0.000 OA
ATOM     10  H   GLU P   1       6.079  -5.018  -8.896  0.00  0.00    +0.000 HD
ATOM     11  H   GLU P   1       6.724  -6.485  -9.351  0.00  0.00    +0.000 HD
ATOM     12  H   GLU P   1       7.619  -5.435  -8.418  0.00  0.00    +0.000 HD
TER 
REMARK  Name = /data/user_data/xianyang/t3-aimnet-affinity-balanced/L4/Q13724/pocket.pdb
REMARK                            x       y       z     vdW  Elec       q    Type
REMARK                         _______ _______ _______ _____ _____    ______ ____
ATOM      1  N   PHE Q   1       5.733  -0.879  -8.915  0.00  0.00    +0.000 N 
ATOM      2  CA  PHE Q   1       5.477  -1.314  -7.556  0.00  0.00    +0.000 C 
ATOM      3  C   PHE Q   1       6.455  -0.605  -6.636  0.00  0.00    +0.000 C 
ATOM      4  O   PHE Q   1       7.563  -1.094  -6.378  0.00  0.00    +0.000 OA
ATOM      5  CB  PHE Q   1       5.593  -2.828  -7.431  0.00  0.00    +0.000 C 
ATOM      6  CG  PHE Q   1       4.931  -3.394  -6.205  0.00  0.00    +0.000 A 
ATOM      7  CD1 PHE Q   1       3.585  -3.727  -6.233  0.00  0.00    +0.000 A 
ATOM      8  CD2 PHE Q   1       5.639  -3.583  -5.037  0.00  0.00    +0.000 A 
ATOM      9  CE1 PHE Q   1       2.961  -4.249  -5.113  0.00  0.00    +0.000 A 
ATOM     10  CE2 PHE Q   1       5.021  -4.104  -3.911  0.00  0.00    +0.000 A 
ATOM     11  CZ  PHE Q   1       3.683  -4.435  -3.951  0.00  0.00    +0.000 A 
ATOM     12  H   PHE Q   1       5.084  -1.345  -9.549  0.00  0.00    +0.000 HD
ATOM     13  H   PHE Q   1       6.691  -1.116  -9.173  0.00  0.00    +0.000 HD
ATOM     14  H   PHE Q   1       5.604   0.131  -8.979  0.00  0.00    +0.000 HD
TER 
REMARK  Name = /data/user_data/xianyang/t3-aimnet-affinity-balanced/L4/Q13724/pocket.pdb
REMARK                            x       y       z     vdW  Elec       q    Type
REMARK                         _______ _______ _______ _____ _____    ______ ____
ATOM      1  N   TRP R   1       6.738  -2.285  -1.095  0.00  0.00    +0.000 N 
ATOM      2  CA  TRP R   1       7.894  -2.760  -0.361  0.00  0.00    +0.000 C 
ATOM      3  C   TRP R   1       9.125  -2.991  -1.228  0.00  0.00    +0.000 C 
ATOM      4  O   TRP R   1      10.221  -3.169  -0.685  0.00  0.00    +0.000 OA
ATOM      5  CB  TRP R   1       7.567  -4.004   0.462  0.00  0.00    +0.000 C 
ATOM      6  CG  TRP R   1       6.999  -5.195  -0.255  0.00  0.00    +0.000 C 
ATOM      7  CD1 TRP R   1       7.427  -5.799  -1.385  0.00  0.00    +0.000 C 
ATOM      8  CD2 TRP R   1       5.888  -5.982   0.217  0.00  0.00    +0.000 C 
ATOM      9  NE1 TRP R   1       6.649  -6.898  -1.687  0.00  0.00    +0.000 NA
ATOM     10  CE2 TRP R   1       5.711  -7.027  -0.719  0.00  0.00    +0.000 C 
ATOM     11  CE3 TRP R   1       5.048  -5.901   1.327  0.00  0.00    +0.000 C 
ATOM     12  CZ2 TRP R   1       4.713  -7.993  -0.562  0.00  0.00    +0.000 C 
ATOM     13  CZ3 TRP R   1       4.066  -6.859   1.480  0.00  0.00    +0.000 C 
ATOM     14  CH2 TRP R   1       3.902  -7.885   0.547  0.00  0.00    +0.000 C 
ATOM     15  H   TRP R   1       6.993  -1.456  -1.631  0.00  0.00    +0.000 HD
ATOM     16  H   TRP R   1       5.992  -2.050  -0.440  0.00  0.00    +0.000 HD
ATOM     17  H   TRP R   1       6.415  -3.015  -1.730  0.00  0.00    +0.000 HD
TER 
