REMARK  Name = /home/xianyang/aimnet2_score_pipelines/work/L1234-fixed-receptor-eint-20260921/L1/P50053/prepared.pdb
REMARK                            x       y       z     vdW  Elec       q    Type
REMARK                         _______ _______ _______ _____ _____    ______ ____
ATOM      1  CH3 ACE A   1      -5.895  -1.333  28.887  0.00  0.00    +0.000 C 
ATOM      2  C   ACE A   1      -6.692  -0.203  28.263  0.00  0.00    +0.000 C 
ATOM      3  O   ACE A   1      -6.102   0.776  27.797  0.00  0.00    +0.000 OA
ATOM      4  N   ASN A   2      -8.041  -0.326  28.241  0.00  0.00    +0.000 N 
ATOM      5  H   ASN A   2      -8.451  -1.154  28.639  0.00  0.00    +0.000 HD
ATOM      6  CA  ASN A   2      -8.962   0.674  27.701  0.00  0.00    +0.000 C 
ATOM      7  C   ASN A   2      -8.724   2.017  28.345  0.00  0.00    +0.000 C 
ATOM      8  O   ASN A   2      -8.495   2.096  29.545  0.00  0.00    +0.000 OA
ATOM      9  CB  ASN A   2     -10.425   0.260  27.892  0.00  0.00    +0.000 C 
ATOM     10  CG  ASN A   2     -10.936  -0.855  26.994  0.00  0.00    +0.000 C 
ATOM     11  OD1 ASN A   2     -10.244  -1.369  26.101  0.00  0.00    +0.000 OA
ATOM     12  ND2 ASN A   2     -12.174  -1.256  27.221  0.00  0.00    +0.000 N 
ATOM     13 HD21 ASN A   2     -12.680  -0.874  28.015  0.00  0.00    +0.000 HD
ATOM     14 HD22 ASN A   2     -12.521  -2.005  26.658  0.00  0.00    +0.000 HD
ATOM     15  N   ARG A   3      -8.730   3.064  27.547  0.00  0.00    +0.000 N 
ATOM     16  H   ARG A   3      -8.974   2.930  26.568  0.00  0.00    +0.000 HD
ATOM     17  CA  ARG A   3      -8.463   4.400  28.025  0.00  0.00    +0.000 C 
ATOM     18  C   ARG A   3      -9.662   5.244  27.658  0.00  0.00    +0.000 C 
ATOM     19  O   ARG A   3     -10.160   5.107  26.549  0.00  0.00    +0.000 OA
ATOM     20  CB  ARG A   3      -7.104   4.909  27.445  0.00  0.00    +0.000 C 
ATOM     21  CG  ARG A   3      -7.124   6.157  26.561  0.00  0.00    +0.000 C 
ATOM     22  CD  ARG A   3      -7.224   5.718  25.143  0.00  0.00    +0.000 C 
ATOM     23  NE  ARG A   3      -7.428   6.787  24.166  0.00  0.00    +0.000 N 
ATOM     24  HE  ARG A   3      -6.619   7.145  23.695  0.00  0.00    +0.000 HD
ATOM     25  CZ  ARG A   3      -8.616   7.233  23.778  0.00  0.00    +0.000 C 
ATOM     26  NH1 ARG A   3      -9.717   6.825  24.391  0.00  0.00    +0.000 N 
ATOM     27 HH11 ARG A   3     -10.608   6.838  23.916  0.00  0.00    +0.000 HD
ATOM     28 HH12 ARG A   3      -9.673   6.052  25.053  0.00  0.00    +0.000 HD
ATOM     29  NH2 ARG A   3      -8.707   8.146  22.825  0.00  0.00    +0.000 N 
ATOM     30 HH21 ARG A   3      -7.894   8.470  22.333  0.00  0.00    +0.000 HD
ATOM     31 HH22 ARG A   3      -9.619   8.486  22.572  0.00  0.00    +0.000 HD
ATOM     32  N   THR A   4     -10.134   6.084  28.596  0.00  0.00    +0.000 N 
ATOM     33  H   THR A   4      -9.629   6.129  29.469  0.00  0.00    +0.000 HD
ATOM     34  CA  THR A   4     -11.248   7.011  28.457  0.00  0.00    +0.000 C 
ATOM     35  C   THR A   4     -10.691   8.367  28.874  0.00  0.00    +0.000 C 
ATOM     36  O   THR A   4     -10.066   8.463  29.931  0.00  0.00    +0.000 OA
ATOM     37  CB  THR A   4     -12.454   6.549  29.307  0.00  0.00    +0.000 C 
ATOM     38  OG1 THR A   4     -12.726   5.176  29.002  0.00  0.00    +0.000 OA
ATOM     39  HG1 THR A   4     -12.090   4.629  29.479  0.00  0.00    +0.000 HD
ATOM     40  CG2 THR A   4     -13.694   7.383  29.070  0.00  0.00    +0.000 C 
ATOM     41  N   ILE A   5     -10.890   9.402  28.033  0.00  0.00    +0.000 N 
ATOM     42  H   ILE A   5     -11.501   9.257  27.231  0.00  0.00    +0.000 HD
ATOM     43  CA  ILE A   5     -10.354  10.737  28.234  0.00  0.00    +0.000 C 
ATOM     44  C   ILE A   5     -11.420  11.807  28.316  0.00  0.00    +0.000 C 
ATOM     45  O   ILE A   5     -12.190  11.978  27.375  0.00  0.00    +0.000 OA
ATOM     46  CB  ILE A   5      -9.328  11.063  27.108  0.00  0.00    +0.000 C 
ATOM     47  CG1 ILE A   5      -8.196  10.013  27.054  0.00  0.00    +0.000 C 
ATOM     48  CG2 ILE A   5      -8.764  12.500  27.236  0.00  0.00    +0.000 C 
ATOM     49  CD1 ILE A   5      -7.430   9.970  25.730  0.00  0.00    +0.000 C 
ATOM     50  N   VAL A   6     -11.430  12.564  29.428  0.00  0.00    +0.000 N 
ATOM     51  H   VAL A   6     -10.741  12.380  30.142  0.00  0.00    +0.000 HD
ATOM     52  CA  VAL A   6     -12.311  13.721  29.625  0.00  0.00    +0.000 C 
ATOM     53  C   VAL A   6     -11.360  14.905  29.411  0.00  0.00    +0.000 C 
ATOM     54  O   VAL A   6     -10.491  15.145  30.240  0.00  0.00    +0.000 OA
ATOM     55  CB  VAL A   6     -13.026  13.753  31.000  0.00  0.00    +0.000 C 
ATOM     56  CG1 VAL A   6     -13.937  14.971  31.099  0.00  0.00    +0.000 C 
ATOM     57  CG2 VAL A   6     -13.833  12.477  31.229  0.00  0.00    +0.000 C 
ATOM     58  N   NME A   7     -11.464  15.587  28.272  0.00  0.00    +0.000 N 
ATOM     59  H   NME A   7     -12.166  15.311  27.603  0.00  0.00    +0.000 HD
ATOM     60  C   NME A   7     -10.494  16.604  27.913  0.00  0.00    +0.000 C 
TER 
REMARK  Name = /home/xianyang/aimnet2_score_pipelines/work/L1234-fixed-receptor-eint-20260921/L1/P50053/prepared.pdb
REMARK                            x       y       z     vdW  Elec       q    Type
REMARK                         _______ _______ _______ _____ _____    ______ ____
ATOM      1  CH3 ACE B   1      -3.210   6.999   2.648  0.00  0.00    +0.000 C 
ATOM      2  C   ACE B   1      -3.062   5.811   3.595  0.00  0.00    +0.000 C 
ATOM      3  O   ACE B   1      -2.931   4.673   3.140  0.00  0.00    +0.000 OA
ATOM      4  N   VAL B   2      -2.974   6.097   4.900  0.00  0.00    +0.000 N 
ATOM      5  H   VAL B   2      -3.104   7.055   5.183  0.00  0.00    +0.000 HD
ATOM      6  CA  VAL B   2      -2.764   5.106   5.972  0.00  0.00    +0.000 C 
ATOM      7  C   VAL B   2      -3.954   5.098   6.947  0.00  0.00    +0.000 C 
ATOM      8  O   VAL B   2      -4.383   6.158   7.404  0.00  0.00    +0.000 OA
ATOM      9  CB  VAL B   2      -1.417   5.384   6.723  0.00  0.00    +0.000 C 
ATOM     10  CG1 VAL B   2      -1.165   4.353   7.814  0.00  0.00    +0.000 C 
ATOM     11  CG2 VAL B   2      -0.224   5.448   5.763  0.00  0.00    +0.000 C 
ATOM     12  N   CYS B   3      -4.486   3.914   7.255  0.00  0.00    +0.000 N 
ATOM     13  H   CYS B   3      -4.099   3.074   6.826  0.00  0.00    +0.000 HD
ATOM     14  CA  CYS B   3      -5.561   3.756   8.230  0.00  0.00    +0.000 C 
ATOM     15  C   CYS B   3      -5.332   2.560   9.151  0.00  0.00    +0.000 C 
ATOM     16  O   CYS B   3      -5.411   1.414   8.700  0.00  0.00    +0.000 OA
ATOM     17  CB  CYS B   3      -6.937   3.711   7.569  0.00  0.00    +0.000 C 
ATOM     18  SG  CYS B   3      -8.319   3.668   8.741  0.00  0.00    +0.000 S 
ATOM     19  HG  CYS B   3      -8.187   4.910   9.219  0.00  0.00    +0.000 HD
ATOM     20  N   ALA B   4      -5.017   2.851  10.433  0.00  0.00    +0.000 N 
ATOM     21  H   ALA B   4      -5.004   3.823  10.693  0.00  0.00    +0.000 HD
ATOM     22  CA  ALA B   4      -4.844   1.899  11.525  0.00  0.00    +0.000 C 
ATOM     23  C   ALA B   4      -6.240   1.600  12.092  0.00  0.00    +0.000 C 
ATOM     24  O   ALA B   4      -7.005   2.520  12.349  0.00  0.00    +0.000 OA
ATOM     25  CB  ALA B   4      -3.938   2.482  12.605  0.00  0.00    +0.000 C 
ATOM     26  N   TRP B   5      -6.588   0.319  12.229  0.00  0.00    +0.000 N 
ATOM     27  H   TRP B   5      -5.961  -0.412  11.902  0.00  0.00    +0.000 HD
ATOM     28  CA  TRP B   5      -7.891  -0.120  12.725  0.00  0.00    +0.000 C 
ATOM     29  C   TRP B   5      -7.727  -0.900  14.038  0.00  0.00    +0.000 C 
ATOM     30  O   TRP B   5      -8.268  -1.991  14.195  0.00  0.00    +0.000 OA
ATOM     31  CB  TRP B   5      -8.635  -0.922  11.646  0.00  0.00    +0.000 C 
ATOM     32  CG  TRP B   5     -10.125  -0.829  11.730  0.00  0.00    +0.000 A 
ATOM     33  CD1 TRP B   5     -10.970  -1.704  12.353  0.00  0.00    +0.000 A 
ATOM     34  CD2 TRP B   5     -10.962   0.148  11.085  0.00  0.00    +0.000 A 
ATOM     35  NE1 TRP B   5     -12.278  -1.324  12.150  0.00  0.00    +0.000 N 
ATOM     36  HE1 TRP B   5     -13.061  -1.886  12.451  0.00  0.00    +0.000 HD
ATOM     37  CE2 TRP B   5     -12.304  -0.201  11.362  0.00  0.00    +0.000 A 
ATOM     38  CE3 TRP B   5     -10.706   1.284  10.295  0.00  0.00    +0.000 A 
ATOM     39  CZ2 TRP B   5     -13.386   0.528  10.857  0.00  0.00    +0.000 A 
ATOM     40  CZ3 TRP B   5     -11.778   2.008   9.795  0.00  0.00    +0.000 A 
ATOM     41  CH2 TRP B   5     -13.101   1.634  10.083  0.00  0.00    +0.000 A 
ATOM     42  N   ALA B   6      -7.012  -0.284  14.998  0.00  0.00    +0.000 N 
ATOM     43  H   ALA B   6      -6.642   0.617  14.751  0.00  0.00    +0.000 HD
ATOM     44  CA  ALA B   6      -6.709  -0.776  16.342  0.00  0.00    +0.000 C 
ATOM     45  C   ALA B   6      -6.119  -2.206  16.313  0.00  0.00    +0.000 C 
ATOM     46  O   ALA B   6      -5.184  -2.426  15.555  0.00  0.00    +0.000 OA
ATOM     47  CB  ALA B   6      -7.933  -0.646  17.258  0.00  0.00    +0.000 C 
ATOM     48  N   GLU B   7      -6.672  -3.165  17.062  0.00  0.00    +0.000 N 
ATOM     49  H   GLU B   7      -7.502  -2.910  17.593  0.00  0.00    +0.000 HD
ATOM     50  CA  GLU B   7      -6.206  -4.554  17.158  0.00  0.00    +0.000 C 
ATOM     51  C   GLU B   7      -6.440  -5.373  15.895  0.00  0.00    +0.000 C 
ATOM     52  O   GLU B   7      -6.018  -6.540  15.831  0.00  0.00    +0.000 OA
ATOM     53  CB  GLU B   7      -6.773  -5.283  18.417  0.00  0.00    +0.000 C 
ATOM     54  CG  GLU B   7      -8.272  -5.186  18.667  0.00  0.00    +0.000 C 
ATOM     55  CD  GLU B   7      -8.832  -3.808  18.985  0.00  0.00    +0.000 C 
ATOM     56  OE1 GLU B   7      -9.737  -3.382  18.233  0.00  0.00    +0.000 OA
ATOM     57  OE2 GLU B   7      -8.369  -3.148  19.949  0.00  0.00    +0.000 OA
ATOM     58  N   GLU B   8      -7.055  -4.757  14.875  0.00  0.00    +0.000 N 
ATOM     59  H   GLU B   8      -7.446  -3.830  15.011  0.00  0.00    +0.000 HD
ATOM     60  CA  GLU B   8      -7.252  -5.386  13.567  0.00  0.00    +0.000 C 
ATOM     61  C   GLU B   8      -6.125  -5.016  12.561  0.00  0.00    +0.000 C 
ATOM     62  O   GLU B   8      -6.157  -5.410  11.390  0.00  0.00    +0.000 OA
ATOM     63  CB  GLU B   8      -8.646  -5.098  13.019  0.00  0.00    +0.000 C 
ATOM     64  CG  GLU B   8      -9.734  -5.892  13.726  0.00  0.00    +0.000 C 
ATOM     65  CD  GLU B   8     -11.127  -5.587  13.224  0.00  0.00    +0.000 C 
ATOM     66  OE1 GLU B   8     -11.261  -5.144  12.058  0.00  0.00    +0.000 OA
ATOM     67  OE2 GLU B   8     -12.089  -5.796  13.998  0.00  0.00    +0.000 OA
ATOM     68  N   GLY B   9      -5.109  -4.321  13.057  0.00  0.00    +0.000 N 
ATOM     69  H   GLY B   9      -5.201  -3.956  13.996  0.00  0.00    +0.000 HD
ATOM     70  CA  GLY B   9      -3.959  -3.946  12.252  0.00  0.00    +0.000 C 
ATOM     71  C   GLY B   9      -4.184  -2.729  11.393  0.00  0.00    +0.000 C 
ATOM     72  O   GLY B   9      -5.224  -2.066  11.469  0.00  0.00    +0.000 OA
ATOM     73  N   ALA B  10      -3.197  -2.419  10.583  0.00  0.00    +0.000 N 
ATOM     74  H   ALA B  10      -2.478  -3.115  10.409  0.00  0.00    +0.000 HD
ATOM     75  CA  ALA B  10      -3.225  -1.223   9.763  0.00  0.00    +0.000 C 
ATOM     76  C   ALA B  10      -3.046  -1.500   8.293  0.00  0.00    +0.000 C 
ATOM     77  O   ALA B  10      -2.426  -2.489   7.903  0.00  0.00    +0.000 OA
ATOM     78  CB  ALA B  10      -2.163  -0.268  10.255  0.00  0.00    +0.000 C 
ATOM     79  N   ASP B  11      -3.616  -0.621   7.467  0.00  0.00    +0.000 N 
ATOM     80  H   ASP B  11      -4.185   0.121   7.859  0.00  0.00    +0.000 HD
ATOM     81  CA  ASP B  11      -3.558  -0.698   6.006  0.00  0.00    +0.000 C 
ATOM     82  C   ASP B  11      -2.999   0.600   5.458  0.00  0.00    +0.000 C 
ATOM     83  O   ASP B  11      -3.150   1.647   6.081  0.00  0.00    +0.000 OA
ATOM     84  CB  ASP B  11      -4.968  -0.910   5.424  0.00  0.00    +0.000 C 
ATOM     85  CG  ASP B  11      -5.580  -2.304   5.548  0.00  0.00    +0.000 C 
ATOM     86  OD1 ASP B  11      -5.161  -3.065   6.438  0.00  0.00    +0.000 OA
ATOM     87  OD2 ASP B  11      -6.513  -2.611   4.777  0.00  0.00    +0.000 OA
ATOM     88  N   NME B  12      -2.369   0.529   4.288  0.00  0.00    +0.000 N 
ATOM     89  H   NME B  12      -2.315  -0.392   3.862  0.00  0.00    +0.000 HD
ATOM     90  C   NME B  12      -1.824   1.676   3.567  0.00  0.00    +0.000 C 
TER 
REMARK  Name = /home/xianyang/aimnet2_score_pipelines/work/L1234-fixed-receptor-eint-20260921/L1/P50053/prepared.pdb
REMARK                            x       y       z     vdW  Elec       q    Type
REMARK                         _______ _______ _______ _____ _____    ______ ____
ATOM      1  CH3 ACE C   1      -0.967  -3.055   1.974  0.00  0.00    +0.000 C 
ATOM      2  C   ACE C   1      -1.579  -3.225   3.353  0.00  0.00    +0.000 C 
ATOM      3  O   ACE C   1      -2.304  -2.345   3.820  0.00  0.00    +0.000 OA
ATOM      4  N   HIS C   2      -1.310  -4.362   3.998  0.00  0.00    +0.000 N 
ATOM      5  H   HIS C   2      -0.688  -5.039   3.589  0.00  0.00    +0.000 HD
ATOM      6  CA  HIS C   2      -1.809  -4.629   5.342  0.00  0.00    +0.000 C 
ATOM      7  C   HIS C   2      -0.733  -5.123   6.246  0.00  0.00    +0.000 C 
ATOM      8  O   HIS C   2       0.158  -5.850   5.820  0.00  0.00    +0.000 OA
ATOM      9  CB  HIS C   2      -3.000  -5.643   5.323  0.00  0.00    +0.000 C 
ATOM     10  CG  HIS C   2      -3.431  -6.115   6.691  0.00  0.00    +0.000 A 
ATOM     11  ND1 HIS C   2      -4.216  -5.312   7.528  0.00  0.00    +0.000 N 
ATOM     12  HD1 HIS C   2      -4.643  -4.411   7.285  0.00  0.00    +0.000 HD
ATOM     13  CD2 HIS C   2      -3.095  -7.243   7.368  0.00  0.00    +0.000 A 
ATOM     14  CE1 HIS C   2      -4.364  -5.993   8.659  0.00  0.00    +0.000 A 
ATOM     15  NE2 HIS C   2      -3.674  -7.138   8.632  0.00  0.00    +0.000 NA
ATOM     16  N   SER C   3      -0.858  -4.791   7.531  0.00  0.00    +0.000 N 
ATOM     17  H   SER C   3      -1.661  -4.226   7.806  0.00  0.00    +0.000 HD
ATOM     18  CA  SER C   3      -0.035  -5.362   8.594  0.00  0.00    +0.000 C 
ATOM     19  C   SER C   3      -0.956  -5.773   9.707  0.00  0.00    +0.000 C 
ATOM     20  O   SER C   3      -1.807  -4.967  10.094  0.00  0.00    +0.000 OA
ATOM     21  CB  SER C   3       0.961  -4.363   9.164  0.00  0.00    +0.000 C 
ATOM     22  OG  SER C   3       1.502  -4.945  10.344  0.00  0.00    +0.000 OA
ATOM     23  HG  SER C   3       0.798  -5.125  11.001  0.00  0.00    +0.000 HD
ATOM     24  N   ASP C   4      -0.759  -6.981  10.270  0.00  0.00    +0.000 N 
ATOM     25  H   ASP C   4      -0.086  -7.621   9.888  0.00  0.00    +0.000 HD
ATOM     26  CA  ASP C   4      -1.519  -7.383  11.443  0.00  0.00    +0.000 C 
ATOM     27  C   ASP C   4      -1.014  -6.575  12.606  0.00  0.00    +0.000 C 
ATOM     28  O   ASP C   4       0.129  -6.083  12.558  0.00  0.00    +0.000 OA
ATOM     29  CB  ASP C   4      -1.312  -8.875  11.758  0.00  0.00    +0.000 C 
ATOM     30  CG  ASP C   4      -2.318  -9.761  11.087  0.00  0.00    +0.000 C 
ATOM     31  OD1 ASP C   4      -3.087  -9.265  10.280  0.00  0.00    +0.000 OA
ATOM     32  OD2 ASP C   4      -2.366 -10.946  11.410  0.00  0.00    +0.000 OA
ATOM     33  N   ALA C   5      -1.852  -6.439  13.654  0.00  0.00    +0.000 N 
ATOM     34  H   ALA C   5      -2.745  -6.909  13.611  0.00  0.00    +0.000 HD
ATOM     35  CA  ALA C   5      -1.450  -5.806  14.903  0.00  0.00    +0.000 C 
ATOM     36  C   ALA C   5      -0.442  -6.741  15.642  0.00  0.00    +0.000 C 
ATOM     37  O   ALA C   5      -0.348  -7.959  15.358  0.00  0.00    +0.000 OA
ATOM     38  CB  ALA C   5      -2.671  -5.546  15.761  0.00  0.00    +0.000 C 
ATOM     39  N   PHE C   6       0.310  -6.170  16.588  0.00  0.00    +0.000 N 
ATOM     40  H   PHE C   6       0.234  -5.177  16.739  0.00  0.00    +0.000 HD
ATOM     41  CA  PHE C   6       1.194  -6.920  17.460  0.00  0.00    +0.000 C 
ATOM     42  C   PHE C   6       0.636  -6.809  18.912  0.00  0.00    +0.000 C 
ATOM     43  O   PHE C   6       1.292  -6.214  19.784  0.00  0.00    +0.000 OA
ATOM     44  CB  PHE C   6       2.634  -6.420  17.357  0.00  0.00    +0.000 C 
ATOM     45  CG  PHE C   6       3.366  -6.681  16.061  0.00  0.00    +0.000 A 
ATOM     46  CD1 PHE C   6       2.989  -6.034  14.886  0.00  0.00    +0.000 A 
ATOM     47  CD2 PHE C   6       4.531  -7.444  16.048  0.00  0.00    +0.000 A 
ATOM     48  CE1 PHE C   6       3.722  -6.194  13.716  0.00  0.00    +0.000 A 
ATOM     49  CE2 PHE C   6       5.276  -7.589  14.879  0.00  0.00    +0.000 A 
ATOM     50  CZ  PHE C   6       4.866  -6.960  13.723  0.00  0.00    +0.000 A 
ATOM     51  N   PRO C   7      -0.579  -7.343  19.220  0.00  0.00    +0.000 N 
ATOM     52  CA  PRO C   7      -1.104  -7.158  20.587  0.00  0.00    +0.000 C 
ATOM     53  C   PRO C   7      -0.230  -7.780  21.658  0.00  0.00    +0.000 C 
ATOM     54  O   PRO C   7       0.266  -8.892  21.473  0.00  0.00    +0.000 OA
ATOM     55  CB  PRO C   7      -2.463  -7.866  20.549  0.00  0.00    +0.000 C 
ATOM     56  CG  PRO C   7      -2.371  -8.817  19.450  0.00  0.00    +0.000 C 
ATOM     57  CD  PRO C   7      -1.530  -8.136  18.413  0.00  0.00    +0.000 C 
ATOM     58  N   PRO C   8      -0.096  -7.139  22.826  0.00  0.00    +0.000 N 
ATOM     59  CA  PRO C   8       0.633  -7.800  23.909  0.00  0.00    +0.000 C 
ATOM     60  C   PRO C   8      -0.258  -8.891  24.554  0.00  0.00    +0.000 C 
ATOM     61  O   PRO C   8      -1.501  -8.789  24.487  0.00  0.00    +0.000 OA
ATOM     62  CB  PRO C   8       0.943  -6.653  24.850  0.00  0.00    +0.000 C 
ATOM     63  CG  PRO C   8      -0.194  -5.713  24.639  0.00  0.00    +0.000 C 
ATOM     64  CD  PRO C   8      -0.643  -5.830  23.239  0.00  0.00    +0.000 C 
ATOM     65  N   PRO C   9       0.324  -9.956  25.174  0.00  0.00    +0.000 N 
ATOM     66  CA  PRO C   9      -0.515 -10.966  25.850  0.00  0.00    +0.000 C 
ATOM     67  C   PRO C   9      -1.468 -10.363  26.885  0.00  0.00    +0.000 C 
ATOM     68  O   PRO C   9      -2.575 -10.857  27.019  0.00  0.00    +0.000 OA
ATOM     69  CB  PRO C   9       0.513 -11.912  26.468  0.00  0.00    +0.000 C 
ATOM     70  CG  PRO C   9       1.752 -11.759  25.600  0.00  0.00    +0.000 C 
ATOM     71  CD  PRO C   9       1.759 -10.274  25.335  0.00  0.00    +0.000 C 
ATOM     72  N   ARG C  10      -1.064  -9.251  27.543  0.00  0.00    +0.000 N 
ATOM     73  H   ARG C  10      -0.155  -8.888  27.294  0.00  0.00    +0.000 HD
ATOM     74  CA  ARG C  10      -1.836  -8.474  28.507  0.00  0.00    +0.000 C 
ATOM     75  C   ARG C  10      -1.743  -7.018  28.144  0.00  0.00    +0.000 C 
ATOM     76  O   ARG C  10      -0.652  -6.423  28.163  0.00  0.00    +0.000 OA
ATOM     77  CB  ARG C  10      -1.340  -8.682  29.953  0.00  0.00    +0.000 C 
ATOM     78  CG  ARG C  10      -2.438  -9.106  30.942  0.00  0.00    +0.000 C 
ATOM     79  CD  ARG C  10      -1.898 -10.054  32.014  0.00  0.00    +0.000 C 
ATOM     80  NE  ARG C  10      -1.269 -11.247  31.425  0.00  0.00    +0.000 N 
ATOM     81  HE  ARG C  10      -1.585 -11.553  30.515  0.00  0.00    +0.000 HD
ATOM     82  CZ  ARG C  10      -0.296 -11.956  31.994  0.00  0.00    +0.000 C 
ATOM     83  NH1 ARG C  10       0.166 -11.621  33.193  0.00  0.00    +0.000 N 
ATOM     84 HH11 ARG C  10      -0.235 -10.835  33.674  0.00  0.00    +0.000 HD
ATOM     85 HH12 ARG C  10       0.893 -12.154  33.636  0.00  0.00    +0.000 HD
ATOM     86  NH2 ARG C  10       0.224 -13.003  31.364  0.00  0.00    +0.000 N 
ATOM     87 HH21 ARG C  10      -0.154 -13.898  31.632  0.00  0.00    +0.000 HD
ATOM     88 HH22 ARG C  10       1.220 -12.989  31.226  0.00  0.00    +0.000 HD
ATOM     89  N   VAL C  11      -2.889  -6.495  27.708  0.00  0.00    +0.000 N 
ATOM     90  H   VAL C  11      -3.706  -7.084  27.683  0.00  0.00    +0.000 HD
ATOM     91  CA  VAL C  11      -3.045  -5.102  27.341  0.00  0.00    +0.000 C 
ATOM     92  C   VAL C  11      -3.287  -4.315  28.656  0.00  0.00    +0.000 C 
ATOM     93  O   VAL C  11      -4.267  -4.567  29.358  0.00  0.00    +0.000 OA
ATOM     94  CB  VAL C  11      -4.146  -4.875  26.278  0.00  0.00    +0.000 C 
ATOM     95  CG1 VAL C  11      -4.108  -3.431  25.781  0.00  0.00    +0.000 C 
ATOM     96  CG2 VAL C  11      -3.984  -5.838  25.109  0.00  0.00    +0.000 C 
ATOM     97  N   VAL C  12      -2.352  -3.411  29.002  0.00  0.00    +0.000 N 
ATOM     98  H   VAL C  12      -1.570  -3.264  28.375  0.00  0.00    +0.000 HD
ATOM     99  CA  VAL C  12      -2.388  -2.637  30.240  0.00  0.00    +0.000 C 
ATOM    100  C   VAL C  12      -2.606  -1.118  30.016  0.00  0.00    +0.000 C 
ATOM    101  O   VAL C  12      -3.168  -0.458  30.900  0.00  0.00    +0.000 OA
ATOM    102  CB  VAL C  12      -1.151  -2.908  31.128  0.00  0.00    +0.000 C 
ATOM    103  CG1 VAL C  12      -0.998  -4.387  31.458  0.00  0.00    +0.000 C 
ATOM    104  CG2 VAL C  12       0.127  -2.336  30.530  0.00  0.00    +0.000 C 
ATOM    105  N   ASP C  13      -2.214  -0.571  28.843  0.00  0.00    +0.000 N 
ATOM    106  H   ASP C  13      -1.722  -1.140  28.165  0.00  0.00    +0.000 HD
ATOM    107  CA  ASP C  13      -2.372   0.875  28.582  0.00  0.00    +0.000 C 
ATOM    108  C   ASP C  13      -2.356   1.221  27.088  0.00  0.00    +0.000 C 
ATOM    109  O   ASP C  13      -1.301   1.228  26.457  0.00  0.00    +0.000 OA
ATOM    110  CB  ASP C  13      -1.304   1.681  29.382  0.00  0.00    +0.000 C 
ATOM    111  CG  ASP C  13      -1.157   3.157  29.079  0.00  0.00    +0.000 C 
ATOM    112  OD1 ASP C  13      -2.149   3.774  28.624  0.00  0.00    +0.000 OA
ATOM    113  OD2 ASP C  13      -0.054   3.705  29.327  0.00  0.00    +0.000 OA
ATOM    114  N   THR C  14      -3.524   1.558  26.546  0.00  0.00    +0.000 N 
ATOM    115  H   THR C  14      -4.351   1.534  27.137  0.00  0.00    +0.000 HD
ATOM    116  CA  THR C  14      -3.689   1.918  25.137  0.00  0.00    +0.000 C 
ATOM    117  C   THR C  14      -3.523   3.403  24.861  0.00  0.00    +0.000 C 
ATOM    118  O   THR C  14      -3.443   3.774  23.699  0.00  0.00    +0.000 OA
ATOM    119  CB  THR C  14      -5.036   1.396  24.589  0.00  0.00    +0.000 C 
ATOM    120  OG1 THR C  14      -6.117   1.996  25.288  0.00  0.00    +0.000 OA
ATOM    121  HG1 THR C  14      -6.213   1.531  26.132  0.00  0.00    +0.000 HD
ATOM    122  CG2 THR C  14      -5.141  -0.112  24.628  0.00  0.00    +0.000 C 
ATOM    123  N   LEU C  15      -3.468   4.255  25.901  0.00  0.00    +0.000 N 
ATOM    124  H   LEU C  15      -3.362   3.883  26.844  0.00  0.00    +0.000 HD
ATOM    125  CA  LEU C  15      -3.344   5.706  25.734  0.00  0.00    +0.000 C 
ATOM    126  C   LEU C  15      -2.069   6.112  24.959  0.00  0.00    +0.000 C 
ATOM    127  O   LEU C  15      -0.959   5.938  25.463  0.00  0.00    +0.000 OA
ATOM    128  CB  LEU C  15      -3.458   6.426  27.104  0.00  0.00    +0.000 C 
ATOM    129  CG  LEU C  15      -3.022   7.909  27.210  0.00  0.00    +0.000 C 
ATOM    130  CD1 LEU C  15      -4.013   8.821  26.544  0.00  0.00    +0.000 C 
ATOM    131  CD2 LEU C  15      -2.891   8.307  28.636  0.00  0.00    +0.000 C 
ATOM    132  N   GLY C  16      -2.261   6.625  23.744  0.00  0.00    +0.000 N 
ATOM    133  H   GLY C  16      -3.206   6.726  23.417  0.00  0.00    +0.000 HD
ATOM    134  CA  GLY C  16      -1.185   7.042  22.858  0.00  0.00    +0.000 C 
ATOM    135  C   GLY C  16      -0.673   5.967  21.919  0.00  0.00    +0.000 C 
ATOM    136  O   GLY C  16       0.392   6.138  21.336  0.00  0.00    +0.000 OA
ATOM    137  N   ALA C  17      -1.397   4.839  21.783  0.00  0.00    +0.000 N 
ATOM    138  H   ALA C  17      -2.193   4.693  22.395  0.00  0.00    +0.000 HD
ATOM    139  CA  ALA C  17      -1.033   3.750  20.864  0.00  0.00    +0.000 C 
ATOM    140  C   ALA C  17      -1.042   4.220  19.392  0.00  0.00    +0.000 C 
ATOM    141  O   ALA C  17      -0.112   3.915  18.647  0.00  0.00    +0.000 OA
ATOM    142  CB  ALA C  17      -1.969   2.567  21.040  0.00  0.00    +0.000 C 
ATOM    143  N   GLY C  18      -2.059   4.997  19.021  0.00  0.00    +0.000 N 
ATOM    144  H   GLY C  18      -2.775   5.188  19.703  0.00  0.00    +0.000 HD
ATOM    145  CA  GLY C  18      -2.213   5.566  17.688  0.00  0.00    +0.000 C 
ATOM    146  C   GLY C  18      -1.137   6.557  17.340  0.00  0.00    +0.000 C 
ATOM    147  O   GLY C  18      -0.702   6.622  16.189  0.00  0.00    +0.000 OA
ATOM    148  N   ASP C  19      -0.669   7.308  18.344  0.00  0.00    +0.000 N 
ATOM    149  H   ASP C  19      -1.122   7.247  19.240  0.00  0.00    +0.000 HD
ATOM    150  CA  ASP C  19       0.412   8.294  18.211  0.00  0.00    +0.000 C 
ATOM    151  C   ASP C  19       1.754   7.588  18.094  0.00  0.00    +0.000 C 
ATOM    152  O   ASP C  19       2.667   8.116  17.442  0.00  0.00    +0.000 OA
ATOM    153  CB  ASP C  19       0.418   9.241  19.406  0.00  0.00    +0.000 C 
ATOM    154  CG  ASP C  19      -0.863  10.031  19.527  0.00  0.00    +0.000 C 
ATOM    155  OD1 ASP C  19      -1.400  10.458  18.471  0.00  0.00    +0.000 OA
ATOM    156  OD2 ASP C  19      -1.339  10.222  20.677  0.00  0.00    +0.000 OA
ATOM    157  N   THR C  20       1.861   6.388  18.722  0.00  0.00    +0.000 N 
ATOM    158  H   THR C  20       1.056   6.077  19.248  0.00  0.00    +0.000 HD
ATOM    159  CA  THR C  20       3.020   5.502  18.653  0.00  0.00    +0.000 C 
ATOM    160  C   THR C  20       3.107   4.941  17.228  0.00  0.00    +0.000 C 
ATOM    161  O   THR C  20       4.208   4.879  16.683  0.00  0.00    +0.000 OA
ATOM    162  CB  THR C  20       2.939   4.416  19.726  0.00  0.00    +0.000 C 
ATOM    163  OG1 THR C  20       2.886   5.062  20.980  0.00  0.00    +0.000 OA
ATOM    164  HG1 THR C  20       2.162   5.714  20.950  0.00  0.00    +0.000 HD
ATOM    165  CG2 THR C  20       4.140   3.509  19.726  0.00  0.00    +0.000 C 
ATOM    166  N   PHE C  21       1.944   4.568  16.631  0.00  0.00    +0.000 N 
ATOM    167  H   PHE C  21       1.098   4.623  17.184  0.00  0.00    +0.000 HD
ATOM    168  CA  PHE C  21       1.821   4.066  15.273  0.00  0.00    +0.000 C 
ATOM    169  C   PHE C  21       2.273   5.156  14.265  0.00  0.00    +0.000 C 
ATOM    170  O   PHE C  21       3.157   4.904  13.448  0.00  0.00    +0.000 OA
ATOM    171  CB  PHE C  21       0.368   3.631  14.994  0.00  0.00    +0.000 C 
ATOM    172  CG  PHE C  21       0.151   3.200  13.559  0.00  0.00    +0.000 A 
ATOM    173  CD1 PHE C  21       0.533   1.933  13.131  0.00  0.00    +0.000 A 
ATOM    174  CD2 PHE C  21      -0.373   4.090  12.615  0.00  0.00    +0.000 A 
ATOM    175  CE1 PHE C  21       0.421   1.570  11.792  0.00  0.00    +0.000 A 
ATOM    176  CE2 PHE C  21      -0.532   3.705  11.283  0.00  0.00    +0.000 A 
ATOM    177  CZ  PHE C  21      -0.128   2.447  10.881  0.00  0.00    +0.000 A 
ATOM    178  N   ASN C  22       1.662   6.352  14.334  0.00  0.00    +0.000 N 
ATOM    179  H   ASN C  22       0.901   6.455  14.996  0.00  0.00    +0.000 HD
ATOM    180  CA  ASN C  22       1.990   7.508  13.494  0.00  0.00    +0.000 C 
ATOM    181  C   ASN C  22       3.493   7.839  13.533  0.00  0.00    +0.000 C 
ATOM    182  O   ASN C  22       4.106   7.938  12.478  0.00  0.00    +0.000 OA
ATOM    183  CB  ASN C  22       1.200   8.729  13.947  0.00  0.00    +0.000 C 
ATOM    184  CG  ASN C  22      -0.285   8.648  13.725  0.00  0.00    +0.000 C 
ATOM    185  OD1 ASN C  22      -0.837   7.718  13.117  0.00  0.00    +0.000 OA
ATOM    186  ND2 ASN C  22      -0.976   9.651  14.213  0.00  0.00    +0.000 N 
ATOM    187 HD21 ASN C  22      -0.511  10.363  14.745  0.00  0.00    +0.000 HD
ATOM    188 HD22 ASN C  22      -1.963   9.480  14.314  0.00  0.00    +0.000 HD
ATOM    189  N   NME C  23       4.086   7.982  14.733  0.00  0.00    +0.000 N 
ATOM    190  H   NME C  23       3.523   7.855  15.568  0.00  0.00    +0.000 HD
ATOM    191  C   NME C  23       5.513   8.292  14.906  0.00  0.00    +0.000 C 
TER 
REMARK  Name = /home/xianyang/aimnet2_score_pipelines/work/L1234-fixed-receptor-eint-20260921/L1/P50053/prepared.pdb
REMARK                            x       y       z     vdW  Elec       q    Type
REMARK                         _______ _______ _______ _____ _____    ______ ____
ATOM      1  CH3 ACE D   1       4.599  -3.541  10.194  0.00  0.00    +0.000 C 
ATOM      2  C   ACE D   1       5.262  -2.978  11.457  0.00  0.00    +0.000 C 
ATOM      3  O   ACE D   1       4.855  -3.302  12.574  0.00  0.00    +0.000 OA
ATOM      4  N   PHE D   2       6.238  -2.067  11.264  0.00  0.00    +0.000 N 
ATOM      5  H   PHE D   2       6.521  -1.893  10.313  0.00  0.00    +0.000 HD
ATOM      6  CA  PHE D   2       6.989  -1.404  12.319  0.00  0.00    +0.000 C 
ATOM      7  C   PHE D   2       6.074  -0.568  13.178  0.00  0.00    +0.000 C 
ATOM      8  O   PHE D   2       6.153  -0.657  14.399  0.00  0.00    +0.000 OA
ATOM      9  CB  PHE D   2       8.143  -0.579  11.751  0.00  0.00    +0.000 C 
ATOM     10  CG  PHE D   2       9.035  -0.031  12.831  0.00  0.00    +0.000 A 
ATOM     11  CD1 PHE D   2       9.811  -0.880  13.609  0.00  0.00    +0.000 A 
ATOM     12  CD2 PHE D   2       9.090   1.336  13.081  0.00  0.00    +0.000 A 
ATOM     13  CE1 PHE D   2      10.608  -0.371  14.629  0.00  0.00    +0.000 A 
ATOM     14  CE2 PHE D   2       9.888   1.842  14.098  0.00  0.00    +0.000 A 
ATOM     15  CZ  PHE D   2      10.652   0.984  14.857  0.00  0.00    +0.000 A 
ATOM     16  N   GLY D   3       5.163   0.165  12.533  0.00  0.00    +0.000 N 
ATOM     17  H   GLY D   3       5.201   0.183  11.527  0.00  0.00    +0.000 HD
ATOM     18  CA  GLY D   3       4.126   0.946  13.197  0.00  0.00    +0.000 C 
ATOM     19  C   GLY D   3       3.252   0.117  14.119  0.00  0.00    +0.000 C 
ATOM     20  O   GLY D   3       3.031   0.508  15.261  0.00  0.00    +0.000 OA
ATOM     21  N   CYS D   4       2.768  -1.041  13.658  0.00  0.00    +0.000 N 
ATOM     22  H   CYS D   4       3.009  -1.330  12.723  0.00  0.00    +0.000 HD
ATOM     23  CA  CYS D   4       1.937  -1.965  14.463  0.00  0.00    +0.000 C 
ATOM     24  C   CYS D   4       2.737  -2.594  15.573  0.00  0.00    +0.000 C 
ATOM     25  O   CYS D   4       2.197  -2.871  16.647  0.00  0.00    +0.000 OA
ATOM     26  CB  CYS D   4       1.279  -3.031  13.588  0.00  0.00    +0.000 C 
ATOM     27  SG  CYS D   4      -0.011  -2.391  12.487  0.00  0.00    +0.000 S 
ATOM     28  HG  CYS D   4      -0.828  -1.903  13.428  0.00  0.00    +0.000 HD
ATOM     29  N   GLN D   5       4.034  -2.827  15.308  0.00  0.00    +0.000 N 
ATOM     30  H   GLN D   5       4.367  -2.660  14.365  0.00  0.00    +0.000 HD
ATOM     31  CA  GLN D   5       4.968  -3.474  16.228  0.00  0.00    +0.000 C 
ATOM     32  C   GLN D   5       5.171  -2.646  17.464  0.00  0.00    +0.000 C 
ATOM     33  O   GLN D   5       4.936  -3.133  18.564  0.00  0.00    +0.000 OA
ATOM     34  CB  GLN D   5       6.317  -3.729  15.536  0.00  0.00    +0.000 C 
ATOM     35  CG  GLN D   5       7.186  -4.680  16.308  0.00  0.00    +0.000 C 
ATOM     36  CD  GLN D   5       8.596  -4.636  15.855  0.00  0.00    +0.000 C 
ATOM     37  OE1 GLN D   5       8.903  -4.860  14.686  0.00  0.00    +0.000 OA
ATOM     38  NE2 GLN D   5       9.486  -4.369  16.792  0.00  0.00    +0.000 N 
ATOM     39 HE21 GLN D   5      10.447  -4.364  16.501  0.00  0.00    +0.000 HD
ATOM     40 HE22 GLN D   5       9.204  -4.201  17.737  0.00  0.00    +0.000 HD
ATOM     41  N   VAL D   6       5.621  -1.393  17.262  0.00  0.00    +0.000 N 
ATOM     42  H   VAL D   6       5.787  -1.108  16.299  0.00  0.00    +0.000 HD
ATOM     43  CA  VAL D   6       5.901  -0.433  18.302  0.00  0.00    +0.000 C 
ATOM     44  C   VAL D   6       4.626  -0.073  19.069  0.00  0.00    +0.000 C 
ATOM     45  O   VAL D   6       4.678  -0.084  20.306  0.00  0.00    +0.000 OA
ATOM     46  CB  VAL D   6       6.684   0.801  17.773  0.00  0.00    +0.000 C 
ATOM     47  CG1 VAL D   6       7.145   1.699  18.933  0.00  0.00    +0.000 C 
ATOM     48  CG2 VAL D   6       7.891   0.350  16.981  0.00  0.00    +0.000 C 
ATOM     49  N   ALA D   7       3.479   0.210  18.353  0.00  0.00    +0.000 N 
ATOM     50  H   ALA D   7       3.525   0.232  17.340  0.00  0.00    +0.000 HD
ATOM     51  CA  ALA D   7       2.165   0.495  18.994  0.00  0.00    +0.000 C 
ATOM     52  C   ALA D   7       1.730  -0.667  19.889  0.00  0.00    +0.000 C 
ATOM     53  O   ALA D   7       1.302  -0.434  21.023  0.00  0.00    +0.000 OA
ATOM     54  CB  ALA D   7       1.084   0.798  17.958  0.00  0.00    +0.000 C 
ATOM     55  N   GLY D   8       1.882  -1.896  19.386  0.00  0.00    +0.000 N 
ATOM     56  H   GLY D   8       2.217  -1.999  18.434  0.00  0.00    +0.000 HD
ATOM     57  CA  GLY D   8       1.578  -3.113  20.123  0.00  0.00    +0.000 C 
ATOM     58  C   GLY D   8       2.409  -3.241  21.374  0.00  0.00    +0.000 C 
ATOM     59  O   GLY D   8       1.868  -3.485  22.427  0.00  0.00    +0.000 OA
ATOM     60  N   LYS D   9       3.708  -3.027  21.288  0.00  0.00    +0.000 N 
ATOM     61  H   LYS D   9       4.081  -2.869  20.355  0.00  0.00    +0.000 HD
ATOM     62  CA  LYS D   9       4.650  -3.073  22.410  0.00  0.00    +0.000 C 
ATOM     63  C   LYS D   9       4.252  -2.066  23.492  0.00  0.00    +0.000 C 
ATOM     64  O   LYS D   9       4.206  -2.420  24.662  0.00  0.00    +0.000 OA
ATOM     65  CB  LYS D   9       6.086  -2.831  21.910  0.00  0.00    +0.000 C 
ATOM     66  CG  LYS D   9       7.139  -2.740  23.021  0.00  0.00    +0.000 C 
ATOM     67  CD  LYS D   9       7.845  -4.042  23.261  0.00  0.00    +0.000 C 
ATOM     68  CE  LYS D   9       8.997  -3.921  24.214  0.00  0.00    +0.000 C 
ATOM     69  NZ  LYS D   9       8.524  -4.228  25.587  0.00  0.00    +0.000 N 
ATOM     70  HZ1 LYS D   9       8.178  -5.179  25.643  0.00  0.00    +0.000 HD
ATOM     71  HZ2 LYS D   9       9.277  -4.121  26.254  0.00  0.00    +0.000 HD
ATOM     72  HZ3 LYS D   9       7.772  -3.600  25.848  0.00  0.00    +0.000 HD
ATOM     73  N   LYS D  10       3.918  -0.834  23.091  0.00  0.00    +0.000 N 
ATOM     74  H   LYS D  10       4.000  -0.637  22.096  0.00  0.00    +0.000 HD
ATOM     75  CA  LYS D  10       3.430   0.234  23.967  0.00  0.00    +0.000 C 
ATOM     76  C   LYS D  10       2.205  -0.214  24.758  0.00  0.00    +0.000 C 
ATOM     77  O   LYS D  10       2.098   0.118  25.946  0.00  0.00    +0.000 OA
ATOM     78  CB  LYS D  10       3.094   1.490  23.125  0.00  0.00    +0.000 C 
ATOM     79  CG  LYS D  10       2.731   2.736  23.923  0.00  0.00    +0.000 C 
ATOM     80  CD  LYS D  10       1.197   2.855  24.155  0.00  0.00    +0.000 C 
ATOM     81  CE  LYS D  10       0.877   3.502  25.500  0.00  0.00    +0.000 C 
ATOM     82  NZ  LYS D  10       1.317   2.671  26.651  0.00  0.00    +0.000 N 
ATOM     83  HZ1 LYS D  10       2.309   2.502  26.652  0.00  0.00    +0.000 HD
ATOM     84  HZ2 LYS D  10       0.828   1.778  26.632  0.00  0.00    +0.000 HD
ATOM     85  HZ3 LYS D  10       1.033   3.127  27.524  0.00  0.00    +0.000 HD
ATOM     86  N   CYS D  11       1.264  -0.923  24.106  0.00  0.00    +0.000 N 
ATOM     87  H   CYS D  11       1.375  -1.095  23.112  0.00  0.00    +0.000 HD
ATOM     88  CA  CYS D  11       0.006  -1.338  24.756  0.00  0.00    +0.000 C 
ATOM     89  C   CYS D  11       0.191  -2.248  25.983  0.00  0.00    +0.000 C 
ATOM     90  O   CYS D  11      -0.651  -2.216  26.862  0.00  0.00    +0.000 OA
ATOM     91  CB  CYS D  11      -0.956  -1.949  23.750  0.00  0.00    +0.000 C 
ATOM     92  SG  CYS D  11      -1.658  -0.759  22.589  0.00  0.00    +0.000 S 
ATOM     93  HG  CYS D  11      -2.387  -0.080  23.479  0.00  0.00    +0.000 HD
ATOM     94  N   GLY D  12       1.279  -3.016  26.034  0.00  0.00    +0.000 N 
ATOM     95  H   GLY D  12       1.920  -2.982  25.250  0.00  0.00    +0.000 HD
ATOM     96  CA  GLY D  12       1.631  -3.877  27.153  0.00  0.00    +0.000 C 
ATOM     97  C   GLY D  12       2.454  -3.209  28.233  0.00  0.00    +0.000 C 
ATOM     98  O   GLY D  12       2.835  -3.881  29.191  0.00  0.00    +0.000 OA
ATOM     99  N   NME D  13       2.699  -1.886  28.121  0.00  0.00    +0.000 N 
ATOM    100  H   NME D  13       2.329  -1.401  27.314  0.00  0.00    +0.000 HD
ATOM    101  C   NME D  13       3.475  -1.103  29.095  0.00  0.00    +0.000 C 
TER 
REMARK  Name = /home/xianyang/aimnet2_score_pipelines/work/L1234-fixed-receptor-eint-20260921/L1/P50053/prepared.pdb
REMARK                            x       y       z     vdW  Elec       q    Type
REMARK                         _______ _______ _______ _____ _____    ______ ____
ATOM      1  CH3 ACE E   1     -18.700   5.928  27.237  0.00  0.00    +0.000 C 
ATOM      2  C   ACE E   1     -17.245   5.408  27.361  0.00  0.00    +0.000 C 
ATOM      3  O   ACE E   1     -16.312   6.127  26.983  0.00  0.00    +0.000 OA
ATOM      4  N   GLU E   2     -17.037   4.211  27.935  0.00  0.00    +0.000 N 
ATOM      5  H   GLU E   2     -17.812   3.620  28.184  0.00  0.00    +0.000 HD
ATOM      6  CA  GLU E   2     -15.675   3.702  28.083  0.00  0.00    +0.000 C 
ATOM      7  C   GLU E   2     -14.965   3.574  26.726  0.00  0.00    +0.000 C 
ATOM      8  O   GLU E   2     -15.584   3.180  25.735  0.00  0.00    +0.000 OA
ATOM      9  CB  GLU E   2     -15.633   2.392  28.876  0.00  0.00    +0.000 C 
ATOM     10  CG  GLU E   2     -14.218   1.925  29.149  0.00  0.00    +0.000 C 
ATOM     11  CD  GLU E   2     -14.016   0.576  29.796  0.00  0.00    +0.000 C 
ATOM     12  OE1 GLU E   2     -14.999  -0.172  30.015  0.00  0.00    +0.000 OA
ATOM     13  OE2 GLU E   2     -12.843   0.276  30.102  0.00  0.00    +0.000 OA
ATOM     14  N   ASP E   3     -13.680   3.974  26.696  0.00  0.00    +0.000 N 
ATOM     15  H   ASP E   3     -13.301   4.307  27.569  0.00  0.00    +0.000 HD
ATOM     16  CA  ASP E   3     -12.746   3.956  25.568  0.00  0.00    +0.000 C 
ATOM     17  C   ASP E   3     -12.919   5.184  24.651  0.00  0.00    +0.000 C 
ATOM     18  O   ASP E   3     -12.252   5.277  23.631  0.00  0.00    +0.000 OA
ATOM     19  CB  ASP E   3     -12.764   2.605  24.799  0.00  0.00    +0.000 C 
ATOM     20  CG  ASP E   3     -11.461   2.165  24.141  0.00  0.00    +0.000 C 
ATOM     21  OD1 ASP E   3     -10.481   2.967  24.129  0.00  0.00    +0.000 OA
ATOM     22  OD2 ASP E   3     -11.418   1.026  23.615  0.00  0.00    +0.000 OA
ATOM     23  N   SER E   4     -13.720   6.172  25.060  0.00  0.00    +0.000 N 
ATOM     24  H   SER E   4     -14.252   6.029  25.910  0.00  0.00    +0.000 HD
ATOM     25  CA  SER E   4     -13.945   7.395  24.273  0.00  0.00    +0.000 C 
ATOM     26  C   SER E   4     -13.196   8.672  24.801  0.00  0.00    +0.000 C 
ATOM     27  O   SER E   4     -12.735   8.715  25.941  0.00  0.00    +0.000 OA
ATOM     28  CB  SER E   4     -15.447   7.680  24.169  0.00  0.00    +0.000 C 
ATOM     29  OG  SER E   4     -15.990   8.207  25.372  0.00  0.00    +0.000 OA
ATOM     30  HG  SER E   4     -16.084   7.473  26.013  0.00  0.00    +0.000 HD
ATOM     31  N   NME E   5     -13.118   9.712  23.943  0.00  0.00    +0.000 N 
ATOM     32  H   NME E   5     -13.573   9.593  23.052  0.00  0.00    +0.000 HD
ATOM     33  C   NME E   5     -12.598  11.043  24.239  0.00  0.00    +0.000 C 
TER 
