REMARK  Name = /data/user_data/xianyang/t3-aimnet-affinity-balanced/L4/P09871/pocket.pdb
REMARK                            x       y       z     vdW  Elec       q    Type
REMARK                         _______ _______ _______ _____ _____    ______ ____
ATOM      1  N   HIS A   1      17.524  -4.305   3.057  0.00  0.00    +0.000 N 
ATOM      2  CA  HIS A   1      18.122  -3.845   1.810  0.00  0.00    +0.000 C 
ATOM      3  C   HIS A   1      18.480  -2.362   1.854  0.00  0.00    +0.000 C 
ATOM      4  O   HIS A   1      19.202  -1.893   0.966  0.00  0.00    +0.000 OA
ATOM      5  CB  HIS A   1      17.207  -4.170   0.619  0.00  0.00    +0.000 C 
ATOM      6  CG  HIS A   1      16.040  -3.243   0.451  0.00  0.00    +0.000 A 
ATOM      7  ND1 HIS A   1      14.767  -3.580   0.852  0.00  0.00    +0.000 N 
ATOM      8  CD2 HIS A   1      15.941  -2.020  -0.127  0.00  0.00    +0.000 A 
ATOM      9  CE1 HIS A   1      13.934  -2.599   0.546  0.00  0.00    +0.000 A 
ATOM     10  NE2 HIS A   1      14.621  -1.634  -0.038  0.00  0.00    +0.000 NA
ATOM     11  H   HIS A   1      17.302  -5.298   2.982  0.00  0.00    +0.000 HD
ATOM     12  H   HIS A   1      16.670  -3.778   3.239  0.00  0.00    +0.000 HD
ATOM     13  H   HIS A   1      18.182  -4.161   3.823  0.00  0.00    +0.000 HD
ATOM     14  H   HIS A   1      14.515  -4.421   1.298  0.00  0.00    +0.000 HD
TER 
REMARK  Name = /data/user_data/xianyang/t3-aimnet-affinity-balanced/L4/P09871/pocket.pdb
REMARK                            x       y       z     vdW  Elec       q    Type
REMARK                         _______ _______ _______ _____ _____    ______ ____
ATOM      1  N   GLU B   1      22.148  -2.878   3.720  0.00  0.00    +0.000 N 
ATOM      2  CA  GLU B   1      23.017  -4.001   3.379  0.00  0.00    +0.000 C 
ATOM      3  C   GLU B   1      24.349  -3.533   2.792  0.00  0.00    +0.000 C 
ATOM      4  O   GLU B   1      25.364  -4.222   2.940  0.00  0.00    +0.000 OA
ATOM      5  CB  GLU B   1      22.308  -4.959   2.413  0.00  0.00    +0.000 C 
ATOM      6  CG  GLU B   1      22.016  -4.364   1.048  0.00  0.00    +0.000 C 
ATOM      7  CD  GLU B   1      21.287  -5.325   0.133  0.00  0.00    +0.000 C 
ATOM      8  OE2 GLU B   1      21.309  -6.557   0.382  0.00  0.00    +0.000 OA
ATOM      9  OE1 GLU B   1      20.698  -4.837  -0.848  0.00  0.00    +0.000 OA
ATOM     10  H   GLU B   1      21.273  -3.231   4.107  0.00  0.00    +0.000 HD
ATOM     11  H   GLU B   1      21.953  -2.332   2.881  0.00  0.00    +0.000 HD
ATOM     12  H   GLU B   1      22.611  -2.287   4.410  0.00  0.00    +0.000 HD
TER 
REMARK  Name = /data/user_data/xianyang/t3-aimnet-affinity-balanced/L4/P09871/pocket.pdb
REMARK                            x       y       z     vdW  Elec       q    Type
REMARK                         _______ _______ _______ _____ _____    ______ ____
ATOM      1  N   PRO C   1      23.375  -6.968  -5.492  0.00  0.00    +0.000 N 
ATOM      2  CA  PRO C   1      22.102  -6.780  -4.780  0.00  0.00    +0.000 C 
ATOM      3  C   PRO C   1      21.000  -6.205  -5.643  0.00  0.00    +0.000 C 
ATOM      4  O   PRO C   1      19.824  -6.433  -5.344  0.00  0.00    +0.000 OA
ATOM      5  CB  PRO C   1      22.472  -5.819  -3.645  0.00  0.00    +0.000 C 
ATOM      6  CG  PRO C   1      23.969  -5.888  -3.539  0.00  0.00    +0.000 C 
ATOM      7  CD  PRO C   1      24.455  -6.147  -4.922  0.00  0.00    +0.000 C 
ATOM      8  N   GLU C   2      21.323  -5.435  -6.679  0.00  0.00    +0.000 N 
ATOM      9  CA  GLU C   2      20.290  -5.087  -7.640  0.00  0.00    +0.000 C 
ATOM     10  C   GLU C   2      19.786  -6.382  -8.261  0.00  0.00    +0.000 C 
ATOM     11  O   GLU C   2      20.503  -7.379  -8.321  0.00  0.00    +0.000 OA
ATOM     12  CB  GLU C   2      20.839  -4.134  -8.705  0.00  0.00    +0.000 C 
ATOM     13  CG  GLU C   2      21.533  -2.880  -8.155  0.00  0.00    +0.000 C 
ATOM     14  CD  GLU C   2      22.954  -3.144  -7.657  0.00  0.00    +0.000 C 
ATOM     15  OE1 GLU C   2      23.477  -4.259  -7.894  0.00  0.00    +0.000 OA
ATOM     16  OE2 GLU C   2      23.547  -2.243  -7.017  0.00  0.00    +0.000 OA
ATOM     17  N   GLY C   3      18.531  -6.415  -8.666  0.00  0.00    +0.000 N 
ATOM     18  CA  GLY C   3      18.156  -7.715  -9.212  0.00  0.00    +0.000 C 
ATOM     19  C   GLY C   3      18.066  -8.861  -8.217  0.00  0.00    +0.000 C 
ATOM     20  O   GLY C   3      17.996 -10.024  -8.630  0.00  0.00    +0.000 OA
ATOM     21  N   ARG C   4      18.091  -8.574  -6.916  0.00  0.00    +0.000 N 
ATOM     22  CA  ARG C   4      17.573  -9.510  -5.930  0.00  0.00    +0.000 C 
ATOM     23  C   ARG C   4      16.187  -9.997  -6.333  0.00  0.00    +0.000 C 
ATOM     24  O   ARG C   4      15.370  -9.230  -6.840  0.00  0.00    +0.000 OA
ATOM     25  CB  ARG C   4      17.487  -8.822  -4.563  0.00  0.00    +0.000 C 
ATOM     26  CG  ARG C   4      16.811  -9.638  -3.484  0.00  0.00    +0.000 C 
ATOM     27  CD  ARG C   4      16.814  -8.838  -2.186  0.00  0.00    +0.000 C 
ATOM     28  NE  ARG C   4      18.176  -8.505  -1.771  0.00  0.00    +0.000 N 
ATOM     29  CZ  ARG C   4      18.966  -9.337  -1.103  0.00  0.00    +0.000 C 
ATOM     30  NH1 ARG C   4      18.558 -10.548  -0.758  0.00  0.00    +0.000 N 
ATOM     31  NH2 ARG C   4      20.188  -8.938  -0.755  0.00  0.00    +0.000 N 
ATOM     32  H   PRO C   1      23.643  -7.950  -5.433  0.00  0.00    +0.000 HD
ATOM     33  H   PRO C   1      23.239  -6.679  -6.461  0.00  0.00    +0.000 HD
ATOM     34  H   GLU C   2      22.244  -5.107  -6.792  0.00  0.00    +0.000 HD
ATOM     35  H   GLY C   3      17.916  -5.648  -8.607  0.00  0.00    +0.000 HD
ATOM     36  H   ARG C   4      18.466  -7.714  -6.617  0.00  0.00    +0.000 HD
ATOM     37  H   ARG C   4      18.527  -7.614  -2.000  0.00  0.00    +0.000 HD
ATOM     38  H   ARG C   4      17.657 -10.854  -1.010  0.00  0.00    +0.000 HD
ATOM     39  H   ARG C   4      19.156 -11.143  -0.250  0.00  0.00    +0.000 HD
ATOM     40  H   ARG C   4      20.503  -8.039  -1.006  0.00  0.00    +0.000 HD
ATOM     41  H   ARG C   4      20.777  -9.542  -0.247  0.00  0.00    +0.000 HD
TER 
REMARK  Name = /data/user_data/xianyang/t3-aimnet-affinity-balanced/L4/P09871/pocket.pdb
REMARK                            x       y       z     vdW  Elec       q    Type
REMARK                         _______ _______ _______ _____ _____    ______ ____
ATOM      1  N   PHE D   1      13.510 -11.404  -1.187  0.00  0.00    +0.000 N 
ATOM      2  CA  PHE D   1      13.495 -10.396  -0.135  0.00  0.00    +0.000 C 
ATOM      3  C   PHE D   1      13.063 -10.946   1.223  0.00  0.00    +0.000 C 
ATOM      4  O   PHE D   1      12.654 -10.166   2.089  0.00  0.00    +0.000 OA
ATOM      5  CB  PHE D   1      12.576  -9.236  -0.527  0.00  0.00    +0.000 C 
ATOM      6  CG  PHE D   1      13.147  -8.332  -1.584  0.00  0.00    +0.000 A 
ATOM      7  CD1 PHE D   1      13.162  -8.713  -2.915  0.00  0.00    +0.000 A 
ATOM      8  CD2 PHE D   1      13.641  -7.077  -1.248  0.00  0.00    +0.000 A 
ATOM      9  CE1 PHE D   1      13.680  -7.862  -3.883  0.00  0.00    +0.000 A 
ATOM     10  CE2 PHE D   1      14.160  -6.236  -2.204  0.00  0.00    +0.000 A 
ATOM     11  CZ  PHE D   1      14.180  -6.630  -3.525  0.00  0.00    +0.000 A 
ATOM     12  H   PHE D   1      13.805 -10.976  -2.064  0.00  0.00    +0.000 HD
ATOM     13  H   PHE D   1      12.574 -11.794  -1.297  0.00  0.00    +0.000 HD
ATOM     14  H   PHE D   1      14.161 -12.148  -0.936  0.00  0.00    +0.000 HD
TER 
REMARK  Name = /data/user_data/xianyang/t3-aimnet-affinity-balanced/L4/P09871/pocket.pdb
REMARK                            x       y       z     vdW  Elec       q    Type
REMARK                         _______ _______ _______ _____ _____    ______ ____
ATOM      1  N   VAL E   1      -0.125   3.142  -3.126  0.00  0.00    +0.000 N 
ATOM      2  CA  VAL E   1       0.924   2.133  -3.049  0.00  0.00    +0.000 C 
ATOM      3  C   VAL E   1       2.192   2.793  -2.519  0.00  0.00    +0.000 C 
ATOM      4  O   VAL E   1       2.358   4.012  -2.593  0.00  0.00    +0.000 OA
ATOM      5  CB  VAL E   1       1.161   1.510  -4.439  0.00  0.00    +0.000 C 
ATOM      6  CG  VAL E   1       1.911   0.183  -4.406  0.00  0.00    +0.000 C 
ATOM      7  OD2 VAL E   1       2.121  -0.407  -3.325  0.00  0.00    +0.000 OA
ATOM      8  OD1 VAL E   1       2.266  -0.294  -5.513  0.00  0.00    +0.000 OA
ATOM      9  N   SER E   2       3.077   1.974  -1.971  0.00  0.00    +0.000 N 
ATOM     10  CA  SER E   2       4.436   2.442  -1.738  0.00  0.00    +0.000 C 
ATOM     11  C   SER E   2       5.222   2.369  -3.049  0.00  0.00    +0.000 C 
ATOM     12  O   SER E   2       4.742   1.839  -4.054  0.00  0.00    +0.000 OA
ATOM     13  CB  SER E   2       5.098   1.606  -0.644  0.00  0.00    +0.000 C 
ATOM     14  OG  SER E   2       5.111   0.244  -1.040  0.00  0.00    +0.000 OA
ATOM     15  N   TRP E   3       6.436   2.925  -3.055  0.00  0.00    +0.000 N 
ATOM     16  CA  TRP E   3       7.229   2.909  -4.273  0.00  0.00    +0.000 C 
ATOM     17  C   TRP E   3       8.707   2.989  -3.914  0.00  0.00    +0.000 C 
ATOM     18  O   TRP E   3       9.088   3.024  -2.741  0.00  0.00    +0.000 OA
ATOM     19  CB  TRP E   3       6.828   4.048  -5.221  0.00  0.00    +0.000 C 
ATOM     20  SG  TRP E   3       7.268   3.710  -6.975  0.00  0.00    +0.000 S 
ATOM     21  N   GLY E   4       9.527   3.017  -4.957  0.00  0.00    +0.000 N 
ATOM     22  CA  GLY E   4      10.964   3.197  -4.842  0.00  0.00    +0.000 C 
ATOM     23  C   GLY E   4      11.284   4.416  -3.984  0.00  0.00    +0.000 C 
ATOM     24  O   GLY E   4      10.763   5.507  -4.222  0.00  0.00    +0.000 OA
ATOM     25  CB  GLY E   4      11.547   3.368  -6.248  0.00  0.00    +0.000 C 
ATOM     26  CG  GLY E   4      13.059   3.392  -6.319  0.00  0.00    +0.000 C 
ATOM     27  CD  GLY E   4      13.605   2.012  -6.067  0.00  0.00    +0.000 C 
ATOM     28  CE  GLY E   4      15.114   2.003  -6.151  0.00  0.00    +0.000 C 
ATOM     29  NZ  GLY E   4      15.578   0.606  -6.035  0.00  0.00    +0.000 N 
ATOM     30  N   PRO E   5      12.163   4.232  -2.999  0.00  0.00    +0.000 N 
ATOM     31  CA  PRO E   5      12.511   5.306  -2.092  0.00  0.00    +0.000 C 
ATOM     32  C   PRO E   5      11.716   5.323  -0.808  0.00  0.00    +0.000 C 
ATOM     33  O   PRO E   5      12.088   6.051   0.118  0.00  0.00    +0.000 OA
ATOM     34  N   VAL E   1       8.188  -1.233   4.511  0.00  0.00    +0.000 N 
ATOM     35  CA  VAL E   1       8.208  -1.263   3.044  0.00  0.00    +0.000 C 
ATOM     36  C   VAL E   1       9.385  -2.099   2.558  0.00  0.00    +0.000 C 
ATOM     37  O   VAL E   1      10.540  -1.806   2.880  0.00  0.00    +0.000 OA
ATOM     38  CB  VAL E   1       8.281   0.157   2.455  0.00  0.00    +0.000 C 
ATOM     39  CG1 VAL E   1       8.391   0.082   0.938  0.00  0.00    +0.000 C 
ATOM     40  CG2 VAL E   1       7.054   0.959   2.885  0.00  0.00    +0.000 C 
ATOM     41  N   SER E   2       9.113  -3.149   1.778  0.00  0.00    +0.000 N 
ATOM     42  CA  SER E   2      10.174  -4.060   1.351  0.00  0.00    +0.000 C 
ATOM     43  C   SER E   2      10.328  -4.033  -0.164  0.00  0.00    +0.000 C 
ATOM     44  O   SER E   2      11.341  -3.542  -0.661  0.00  0.00    +0.000 OA
ATOM     45  CB  SER E   2       9.910  -5.483   1.869  0.00  0.00    +0.000 C 
ATOM     46  OG  SER E   2      10.937  -6.407   1.461  0.00  0.00    +0.000 OA
ATOM     47  N   TRP E   3       9.360  -4.533  -0.917  0.00  0.00    +0.000 N 
ATOM     48  CA  TRP E   3       9.520  -4.673  -2.359  0.00  0.00    +0.000 C 
ATOM     49  C   TRP E   3       8.133  -4.775  -2.974  0.00  0.00    +0.000 C 
ATOM     50  O   TRP E   3       7.125  -4.763  -2.272  0.00  0.00    +0.000 OA
ATOM     51  CB  TRP E   3      10.390  -5.886  -2.702  0.00  0.00    +0.000 C 
ATOM     52  CG  TRP E   3       9.754  -7.211  -2.415  0.00  0.00    +0.000 C 
ATOM     53  CD1 TRP E   3       9.617  -7.820  -1.200  0.00  0.00    +0.000 C 
ATOM     54  CD2 TRP E   3       9.183  -8.095  -3.373  0.00  0.00    +0.000 A 
ATOM     55  NE1 TRP E   3       8.990  -9.037  -1.342  0.00  0.00    +0.000 NA
ATOM     56  CE2 TRP E   3       8.710  -9.225  -2.673  0.00  0.00    +0.000 A 
ATOM     57  CE3 TRP E   3       9.020  -8.037  -4.763  0.00  0.00    +0.000 A 
ATOM     58  CZ2 TRP E   3       8.085 -10.291  -3.317  0.00  0.00    +0.000 A 
ATOM     59  CZ3 TRP E   3       8.402  -9.093  -5.400  0.00  0.00    +0.000 A 
ATOM     60  CH2 TRP E   3       7.941 -10.204  -4.678  0.00  0.00    +0.000 A 
ATOM     61  N   GLY E   4       8.078  -4.876  -4.291  0.00  0.00    +0.000 N 
ATOM     62  CA  GLY E   4       6.808  -5.133  -4.925  0.00  0.00    +0.000 C 
ATOM     63  C   GLY E   4       6.919  -5.120  -6.432  0.00  0.00    +0.000 C 
ATOM     64  O   GLY E   4       7.982  -4.848  -6.993  0.00  0.00    +0.000 OA
ATOM     65  N   PRO E   5       5.817  -5.427  -7.118  0.00  0.00    +0.000 N 
ATOM     66  CA  PRO E   5       5.779  -5.248  -8.578  0.00  0.00    +0.000 C 
ATOM     67  C   PRO E   5       5.607  -3.780  -8.952  0.00  0.00    +0.000 C 
ATOM     68  O   PRO E   5       5.933  -2.894  -8.152  0.00  0.00    +0.000 OA
ATOM     69  CB  PRO E   5       4.571  -6.090  -8.995  0.00  0.00    +0.000 C 
ATOM     70  CG  PRO E   5       3.637  -5.963  -7.811  0.00  0.00    +0.000 C 
ATOM     71  CD  PRO E   5       4.546  -5.955  -6.588  0.00  0.00    +0.000 C 
ATOM     72  N   GLN E   6       5.086  -3.509 -10.149  0.00  0.00    +0.000 N 
ATOM     73  CA  GLN E   6       4.897  -2.134 -10.596  0.00  0.00    +0.000 C 
ATOM     74  C   GLN E   6       4.222  -1.298  -9.515  0.00  0.00    +0.000 C 
ATOM     75  O   GLN E   6       3.251  -1.725  -8.888  0.00  0.00    +0.000 OA
ATOM     76  CB  GLN E   6       4.056  -2.095 -11.879  0.00  0.00    +0.000 C 
ATOM     77  CG  GLN E   6       3.545  -0.689 -12.238  0.00  0.00    +0.000 C 
ATOM     78  CD  GLN E   6       2.108  -0.685 -12.755  0.00  0.00    +0.000 C 
ATOM     79  OE1 GLN E   6       1.677  -1.621 -13.431  0.00  0.00    +0.000 OA
ATOM     80  NE2 GLN E   6       1.356   0.369 -12.424  0.00  0.00    +0.000 N 
ATOM     81  N   CYS E   7       4.750  -0.099  -9.298  0.00  0.00    +0.000 N 
ATOM     82  CA  CYS E   7       4.148   0.805  -8.329  0.00  0.00    +0.000 C 
ATOM     83  C   CYS E   7       2.744   1.204  -8.773  0.00  0.00    +0.000 C 
ATOM     84  O   CYS E   7       2.474   1.377  -9.963  0.00  0.00    +0.000 OA
ATOM     85  CB  CYS E   7       5.015   2.045  -8.144  0.00  0.00    +0.000 C 
ATOM     86  SG  CYS E   7       6.634   1.780  -7.347  0.00  0.00    +0.000 S 
ATOM     87  N   GLY E   8       1.852   1.353  -7.802  0.00  0.00    +0.000 N 
ATOM     88  CA  GLY E   8       0.454   1.626  -8.062  0.00  0.00    +0.000 C 
ATOM     89  C   GLY E   8      -0.426   0.399  -8.070  0.00  0.00    +0.000 C 
ATOM     90  O   GLY E   8      -1.582   0.485  -8.501  0.00  0.00    +0.000 OA
ATOM     91  N   THR E   9       0.083  -0.744  -7.616  0.00  0.00    +0.000 N 
ATOM     92  CA  THR E   9      -0.718  -1.958  -7.539  0.00  0.00    +0.000 C 
ATOM     93  C   THR E   9      -0.740  -2.474  -6.099  0.00  0.00    +0.000 C 
ATOM     94  O   THR E   9      -1.562  -2.037  -5.290  0.00  0.00    +0.000 OA
ATOM     95  CB  THR E   9      -0.176  -3.007  -8.517  0.00  0.00    +0.000 C 
ATOM     96  OG1 THR E   9       1.181  -3.335  -8.195  0.00  0.00    +0.000 OA
ATOM     97  CG2 THR E   9      -0.202  -2.457  -9.949  0.00  0.00    +0.000 C 
ATOM     98  N   TYR E  10       0.172  -3.378  -5.764  0.00  0.00    +0.000 N 
ATOM     99  CA  TYR E  10       0.299  -3.915  -4.417  0.00  0.00    +0.000 C 
ATOM    100  C   TYR E  10       1.759  -3.853  -4.003  0.00  0.00    +0.000 C 
ATOM    101  O   TYR E  10       2.650  -3.736  -4.845  0.00  0.00    +0.000 OA
ATOM    102  CB  TYR E  10      -0.168  -5.368  -4.336  0.00  0.00    +0.000 C 
ATOM    103  CG  TYR E  10      -1.630  -5.607  -4.610  0.00  0.00    +0.000 A 
ATOM    104  CD1 TYR E  10      -2.089  -5.797  -5.903  0.00  0.00    +0.000 A 
ATOM    105  CD2 TYR E  10      -2.546  -5.680  -3.570  0.00  0.00    +0.000 A 
ATOM    106  CE1 TYR E  10      -3.427  -6.035  -6.158  0.00  0.00    +0.000 A 
ATOM    107  CE2 TYR E  10      -3.887  -5.919  -3.815  0.00  0.00    +0.000 A 
ATOM    108  CZ  TYR E  10      -4.320  -6.097  -5.112  0.00  0.00    +0.000 A 
ATOM    109  OH  TYR E  10      -5.656  -6.337  -5.363  0.00  0.00    +0.000 OA
ATOM    110  N   GLY E  11       2.005  -3.966  -2.696  0.00  0.00    +0.000 N 
ATOM    111  CA  GLY E  11       3.357  -3.999  -2.185  0.00  0.00    +0.000 C 
ATOM    112  C   GLY E  11       3.524  -5.080  -1.134  0.00  0.00    +0.000 C 
ATOM    113  O   GLY E  11       2.567  -5.495  -0.481  0.00  0.00    +0.000 OA
ATOM    114  N   LEU E  12       4.768  -5.526  -0.973  0.00  0.00    +0.000 N 
ATOM    115  CA  LEU E  12       5.118  -6.469   0.083  0.00  0.00    +0.000 C 
ATOM    116  C   LEU E  12       5.813  -5.727   1.217  0.00  0.00    +0.000 C 
ATOM    117  O   LEU E  12       6.650  -4.845   0.978  0.00  0.00    +0.000 OA
ATOM    118  CB  LEU E  12       6.033  -7.587  -0.429  0.00  0.00    +0.000 C 
ATOM    119  CG  LEU E  12       5.466  -8.637  -1.397  0.00  0.00    +0.000 C 
ATOM    120  CD2 LEU E  12       4.154  -9.215  -0.878  0.00  0.00    +0.000 C 
ATOM    121  CD1 LEU E  12       5.296  -8.056  -2.797  0.00  0.00    +0.000 C 
ATOM    122  N   TYR E  13       5.482  -6.117   2.447  0.00  0.00    +0.000 N 
ATOM    123  CA  TYR E  13       5.955  -5.460   3.654  0.00  0.00    +0.000 C 
ATOM    124  C   TYR E  13       6.473  -6.532   4.593  0.00  0.00    +0.000 C 
ATOM    125  O   TYR E  13       5.804  -7.548   4.789  0.00  0.00    +0.000 OA
ATOM    126  CB  TYR E  13       4.827  -4.653   4.318  0.00  0.00    +0.000 C 
ATOM    127  CG  TYR E  13       4.292  -3.561   3.419  0.00  0.00    +0.000 A 
ATOM    128  CD1 TYR E  13       3.438  -3.851   2.365  0.00  0.00    +0.000 A 
ATOM    129  CD2 TYR E  13       4.666  -2.240   3.616  0.00  0.00    +0.000 A 
ATOM    130  CE1 TYR E  13       2.978  -2.849   1.523  0.00  0.00    +0.000 A 
ATOM    131  CE2 TYR E  13       4.216  -1.240   2.783  0.00  0.00    +0.000 A 
ATOM    132  CZ  TYR E  13       3.370  -1.538   1.753  0.00  0.00    +0.000 A 
ATOM    133  OH  TYR E  13       2.941  -0.508   0.944  0.00  0.00    +0.000 OA
ATOM    134  H   VAL E   1      -0.982   2.716  -3.479  0.00  0.00    +0.000 HD
ATOM    135  H   VAL E   1       0.168   3.889  -3.755  0.00  0.00    +0.000 HD
ATOM    136  H   VAL E   1      -0.295   3.527  -2.197  0.00  0.00    +0.000 HD
ATOM    137  H   SER E   2       2.818   1.057  -1.723  0.00  0.00    +0.000 HD
ATOM    138  H   SER E   2       4.201  -0.061  -1.178  0.00  0.00    +0.000 HD
ATOM    139  H   TRP E   3       6.792   3.344  -2.238  0.00  0.00    +0.000 HD
ATOM    140  H   GLY E   4       9.141   2.910  -5.856  0.00  0.00    +0.000 HD
ATOM    141  H   GLY E   4      15.269   0.218  -5.144  0.00  0.00    +0.000 HD
ATOM    142  H   GLY E   4      16.597   0.581  -6.081  0.00  0.00    +0.000 HD
ATOM    143  H   GLY E   4      15.189   0.054  -6.800  0.00  0.00    +0.000 HD
ATOM    144  H   PRO E   5      12.584   3.349  -2.886  0.00  0.00    +0.000 HD
ATOM    145  H   VAL E   1       7.398  -0.672   4.829  0.00  0.00    +0.000 HD
ATOM    146  H   VAL E   1       9.056  -0.823   4.855  0.00  0.00    +0.000 HD
ATOM    147  H   VAL E   1       8.096  -2.184   4.869  0.00  0.00    +0.000 HD
ATOM    148  H   SER E   2       8.187  -3.311   1.487  0.00  0.00    +0.000 HD
ATOM    149  H   SER E   2      10.962  -6.455   0.493  0.00  0.00    +0.000 HD
ATOM    150  H   TRP E   3       8.517  -4.815  -0.495  0.00  0.00    +0.000 HD
ATOM    151  H   GLY E   4       8.894  -4.777  -4.833  0.00  0.00    +0.000 HD
ATOM    152  H   GLN E   6       4.824  -4.250 -10.742  0.00  0.00    +0.000 HD
ATOM    153  H   GLN E   6       0.422   0.423 -12.731  0.00  0.00    +0.000 HD
ATOM    154  H   GLN E   6       1.736   1.091 -11.874  0.00  0.00    +0.000 HD
ATOM    155  H   CYS E   7       5.553   0.180  -9.795  0.00  0.00    +0.000 HD
ATOM    156  H   GLY E   8       2.153   1.275  -6.868  0.00  0.00    +0.000 HD
ATOM    157  H   THR E   9       1.023  -0.769  -7.325  0.00  0.00    +0.000 HD
ATOM    158  H   THR E   9       1.732  -2.540  -8.267  0.00  0.00    +0.000 HD
ATOM    159  H   TYR E  10       0.791  -3.700  -6.458  0.00  0.00    +0.000 HD
ATOM    160  H   TYR E  10      -5.953  -6.458  -6.243  0.00  0.00    +0.000 HD
ATOM    161  H   GLY E  11       1.250  -4.028  -2.067  0.00  0.00    +0.000 HD
ATOM    162  H   LEU E  12       5.472  -5.210  -1.584  0.00  0.00    +0.000 HD
ATOM    163  H   TYR E  13       4.884  -6.893   2.544  0.00  0.00    +0.000 HD
ATOM    164  H   TYR E  13       2.360  -0.684   0.230  0.00  0.00    +0.000 HD
TER 
REMARK  Name = /data/user_data/xianyang/t3-aimnet-affinity-balanced/L4/P09871/pocket.pdb
REMARK                            x       y       z     vdW  Elec       q    Type
REMARK                         _______ _______ _______ _____ _____    ______ ____
ATOM      1  N   SER F   1      11.290   2.444   0.832  0.00  0.00    +0.000 N 
ATOM      2  CA  SER F   1      11.903   1.306   1.509  0.00  0.00    +0.000 C 
ATOM      3  CB  SER F   1      12.177   1.551   2.984  0.00  0.00    +0.000 C 
ATOM      4  OG  SER F   1      12.815   2.537   3.351  0.00  0.00    +0.000 OA
ATOM      5  C   SER F   1      13.220   0.981   0.815  0.00  0.00    +0.000 C 
ATOM      6  O   SER F   1      12.965   0.468  -0.472  0.00  0.00    +0.000 OA
ATOM      7  H   SER F   1      11.134   2.212  -0.149  0.00  0.00    +0.000 HD
ATOM      8  H   SER F   1      11.909   3.252   0.897  0.00  0.00    +0.000 HD
ATOM      9  H   SER F   1      10.398   2.663   1.275  0.00  0.00    +0.000 HD
ATOM     10  H   SER F   1      12.483   1.129  -0.994  0.00  0.00    +0.000 HD
TER 
