REMARK  Name = /home/xianyang/aimnet2_score_pipelines/work/L1234-fixed-receptor-eint-20260921/L2/P31153/prepared.pdb
REMARK                            x       y       z     vdW  Elec       q    Type
REMARK                         _______ _______ _______ _____ _____    ______ ____
ATOM      1  CH3 ACE A   1     -40.858  11.414 -52.447  0.00  0.00    +0.000 C 
ATOM      2  C   ACE A   1     -40.399  11.988 -51.101  0.00  0.00    +0.000 C 
ATOM      3  O   ACE A   1     -39.314  11.589 -50.626  0.00  0.00    +0.000 OA
ATOM      4  N   THR A   2     -41.117  12.937 -50.520  0.00  0.00    +0.000 N 
ATOM      5  H   THR A   2     -41.959  13.291 -50.943  0.00  0.00    +0.000 HD
ATOM      6  CA  THR A   2     -40.701  13.465 -49.191  0.00  0.00    +0.000 C 
ATOM      7  C   THR A   2     -41.384  12.668 -48.091  0.00  0.00    +0.000 C 
ATOM      8  O   THR A   2     -42.396  12.005 -48.288  0.00  0.00    +0.000 OA
ATOM      9  CB  THR A   2     -40.922  14.953 -48.985  0.00  0.00    +0.000 C 
ATOM     10  OG1 THR A   2     -42.311  15.192 -48.812  0.00  0.00    +0.000 OA
ATOM     11  HG1 THR A   2     -42.413  15.710 -48.008  0.00  0.00    +0.000 HD
ATOM     12  CG2 THR A   2     -40.374  15.819 -50.099  0.00  0.00    +0.000 C 
ATOM     13  N   PHE A   3     -40.741  12.668 -46.920  0.00  0.00    +0.000 N 
ATOM     14  H   PHE A   3     -39.865  13.176 -46.820  0.00  0.00    +0.000 HD
ATOM     15  CA  PHE A   3     -41.291  11.982 -45.755  0.00  0.00    +0.000 C 
ATOM     16  C   PHE A   3     -40.861  12.732 -44.504  0.00  0.00    +0.000 C 
ATOM     17  O   PHE A   3     -39.934  13.534 -44.519  0.00  0.00    +0.000 OA
ATOM     18  CB  PHE A   3     -40.823  10.529 -45.695  0.00  0.00    +0.000 C 
ATOM     19  CG  PHE A   3     -39.340  10.322 -45.523  0.00  0.00    +0.000 A 
ATOM     20  CD1 PHE A   3     -38.471  10.397 -46.591  0.00  0.00    +0.000 A 
ATOM     21  CD2 PHE A   3     -38.794  10.084 -44.263  0.00  0.00    +0.000 A 
ATOM     22  CE1 PHE A   3     -37.109  10.191 -46.415  0.00  0.00    +0.000 A 
ATOM     23  CE2 PHE A   3     -37.440   9.891 -44.075  0.00  0.00    +0.000 A 
ATOM     24  CZ  PHE A   3     -36.599   9.920 -45.158  0.00  0.00    +0.000 A 
ATOM     25  N   LEU A   4     -41.537  12.424 -43.417  0.00  0.00    +0.000 N 
ATOM     26  H   LEU A   4     -42.225  11.686 -43.459  0.00  0.00    +0.000 HD
ATOM     27  CA  LEU A   4     -41.224  12.977 -42.085  0.00  0.00    +0.000 C 
ATOM     28  C   LEU A   4     -40.440  11.932 -41.293  0.00  0.00    +0.000 C 
ATOM     29  O   LEU A   4     -40.703  10.719 -41.409  0.00  0.00    +0.000 OA
ATOM     30  CB  LEU A   4     -42.492  13.351 -41.319  0.00  0.00    +0.000 C 
ATOM     31  CG  LEU A   4     -43.419  14.353 -42.019  0.00  0.00    +0.000 C 
ATOM     32  CD1 LEU A   4     -44.622  14.667 -41.112  0.00  0.00    +0.000 C 
ATOM     33  CD2 LEU A   4     -42.654  15.594 -42.456  0.00  0.00    +0.000 C 
ATOM     34  N   PHE A   5     -39.575  12.407 -40.437  0.00  0.00    +0.000 N 
ATOM     35  H   PHE A   5     -39.415  13.400 -40.356  0.00  0.00    +0.000 HD
ATOM     36  CA  PHE A   5     -38.931  11.510 -39.449  0.00  0.00    +0.000 C 
ATOM     37  C   PHE A   5     -38.726  12.257 -38.149  0.00  0.00    +0.000 C 
ATOM     38  O   PHE A   5     -38.291  13.430 -38.190  0.00  0.00    +0.000 OA
ATOM     39  CB  PHE A   5     -37.624  10.942 -39.968  0.00  0.00    +0.000 C 
ATOM     40  CG  PHE A   5     -37.176   9.749 -39.143  0.00  0.00    +0.000 A 
ATOM     41  CD1 PHE A   5     -36.370   9.951 -38.046  0.00  0.00    +0.000 A 
ATOM     42  CD2 PHE A   5     -37.650   8.489 -39.380  0.00  0.00    +0.000 A 
ATOM     43  CE1 PHE A   5     -35.980   8.888 -37.236  0.00  0.00    +0.000 A 
ATOM     44  CE2 PHE A   5     -37.230   7.430 -38.552  0.00  0.00    +0.000 A 
ATOM     45  CZ  PHE A   5     -36.398   7.664 -37.502  0.00  0.00    +0.000 A 
ATOM     46  N   THR A   6     -38.969  11.594 -37.026  0.00  0.00    +0.000 N 
ATOM     47  H   THR A   6     -39.343  10.650 -37.086  0.00  0.00    +0.000 HD
ATOM     48  CA  THR A   6     -38.912  12.243 -35.696  0.00  0.00    +0.000 C 
ATOM     49  C   THR A   6     -37.874  11.553 -34.825  0.00  0.00    +0.000 C 
ATOM     50  O   THR A   6     -37.838  10.310 -34.753  0.00  0.00    +0.000 OA
ATOM     51  CB  THR A   6     -40.302  12.179 -35.079  0.00  0.00    +0.000 C 
ATOM     52  OG1 THR A   6     -41.170  12.896 -35.966  0.00  0.00    +0.000 OA
ATOM     53  HG1 THR A   6     -40.765  13.742 -36.164  0.00  0.00    +0.000 HD
ATOM     54  CG2 THR A   6     -40.320  12.792 -33.705  0.00  0.00    +0.000 C 
ATOM     55  N   NME A   7     -37.064  12.341 -34.128  0.00  0.00    +0.000 N 
ATOM     56  H   NME A   7     -37.129  13.336 -34.277  0.00  0.00    +0.000 HD
ATOM     57  C   NME A   7     -36.150  11.868 -33.070  0.00  0.00    +0.000 C 
TER 
REMARK  Name = /home/xianyang/aimnet2_score_pipelines/work/L1234-fixed-receptor-eint-20260921/L2/P31153/prepared.pdb
REMARK                            x       y       z     vdW  Elec       q    Type
REMARK                         _______ _______ _______ _____ _____    ______ ____
ATOM      1  CH3 ACE B   1     -26.429  -8.157 -31.192  0.00  0.00    +0.000 C 
ATOM      2  C   ACE B   1     -26.272  -6.669 -31.005  0.00  0.00    +0.000 C 
ATOM      3  O   ACE B   1     -26.807  -6.101 -30.038  0.00  0.00    +0.000 OA
ATOM      4  N   MET B   2     -25.584  -6.020 -31.947  0.00  0.00    +0.000 N 
ATOM      5  H   MET B   2     -25.142  -6.554 -32.689  0.00  0.00    +0.000 HD
ATOM      6  CA  MET B   2     -25.271  -4.569 -31.822  0.00  0.00    +0.000 C 
ATOM      7  C   MET B   2     -25.243  -4.023 -33.237  0.00  0.00    +0.000 C 
ATOM      8  O   MET B   2     -24.841  -4.726 -34.182  0.00  0.00    +0.000 OA
ATOM      9  CB  MET B   2     -23.917  -4.319 -31.151  0.00  0.00    +0.000 C 
ATOM     10  CG  MET B   2     -23.741  -4.946 -29.781  0.00  0.00    +0.000 C 
ATOM     11  SD  MET B   2     -23.206  -6.685 -29.885  0.00  0.00    +0.000 S 
ATOM     12  CE  MET B   2     -23.642  -7.195 -28.224  0.00  0.00    +0.000 C 
ATOM     13  N   PHE B   3     -25.606  -2.770 -33.369  0.00  0.00    +0.000 N 
ATOM     14  H   PHE B   3     -25.827  -2.220 -32.554  0.00  0.00    +0.000 HD
ATOM     15  CA  PHE B   3     -25.583  -2.086 -34.656  0.00  0.00    +0.000 C 
ATOM     16  C   PHE B   3     -24.790  -0.804 -34.590  0.00  0.00    +0.000 C 
ATOM     17  O   PHE B   3     -24.805  -0.086 -33.587  0.00  0.00    +0.000 OA
ATOM     18  CB  PHE B   3     -26.969  -1.740 -35.151  0.00  0.00    +0.000 C 
ATOM     19  CG  PHE B   3     -27.875  -2.894 -35.455  0.00  0.00    +0.000 A 
ATOM     20  CD1 PHE B   3     -28.708  -3.379 -34.462  0.00  0.00    +0.000 A 
ATOM     21  CD2 PHE B   3     -27.965  -3.437 -36.719  0.00  0.00    +0.000 A 
ATOM     22  CE1 PHE B   3     -29.632  -4.362 -34.737  0.00  0.00    +0.000 A 
ATOM     23  CE2 PHE B   3     -28.881  -4.435 -36.990  0.00  0.00    +0.000 A 
ATOM     24  CZ  PHE B   3     -29.730  -4.863 -36.011  0.00  0.00    +0.000 A 
ATOM     25  N   GLY B   4     -24.185  -0.492 -35.723  0.00  0.00    +0.000 N 
ATOM     26  H   GLY B   4     -24.264  -1.146 -36.495  0.00  0.00    +0.000 HD
ATOM     27  CA  GLY B   4     -23.579   0.812 -35.979  0.00  0.00    +0.000 C 
ATOM     28  C   GLY B   4     -24.228   1.459 -37.168  0.00  0.00    +0.000 C 
ATOM     29  O   GLY B   4     -24.738   0.756 -38.087  0.00  0.00    +0.000 OA
ATOM     30  N   TYR B   5     -24.287   2.774 -37.207  0.00  0.00    +0.000 N 
ATOM     31  H   TYR B   5     -23.858   3.322 -36.475  0.00  0.00    +0.000 HD
ATOM     32  CA  TYR B   5     -24.930   3.501 -38.303  0.00  0.00    +0.000 C 
ATOM     33  C   TYR B   5     -24.138   4.762 -38.566  0.00  0.00    +0.000 C 
ATOM     34  O   TYR B   5     -23.571   5.366 -37.654  0.00  0.00    +0.000 OA
ATOM     35  CB  TYR B   5     -26.364   3.845 -37.913  0.00  0.00    +0.000 C 
ATOM     36  CG  TYR B   5     -27.172   4.586 -38.967  0.00  0.00    +0.000 A 
ATOM     37  CD1 TYR B   5     -27.679   3.961 -40.108  0.00  0.00    +0.000 A 
ATOM     38  CD2 TYR B   5     -27.491   5.928 -38.817  0.00  0.00    +0.000 A 
ATOM     39  CE1 TYR B   5     -28.416   4.661 -41.045  0.00  0.00    +0.000 A 
ATOM     40  CE2 TYR B   5     -28.208   6.636 -39.740  0.00  0.00    +0.000 A 
ATOM     41  CZ  TYR B   5     -28.702   5.976 -40.837  0.00  0.00    +0.000 A 
ATOM     42  OH  TYR B   5     -29.405   6.723 -41.786  0.00  0.00    +0.000 OA
ATOM     43  HH  TYR B   5     -29.506   7.626 -41.470  0.00  0.00    +0.000 HD
ATOM     44  N   ALA B   6     -24.180   5.208 -39.830  0.00  0.00    +0.000 N 
ATOM     45  H   ALA B   6     -24.656   4.657 -40.537  0.00  0.00    +0.000 HD
ATOM     46  CA  ALA B   6     -23.612   6.505 -40.213  0.00  0.00    +0.000 C 
ATOM     47  C   ALA B   6     -24.397   6.988 -41.422  0.00  0.00    +0.000 C 
ATOM     48  O   ALA B   6     -24.836   6.205 -42.250  0.00  0.00    +0.000 OA
ATOM     49  CB  ALA B   6     -22.135   6.406 -40.472  0.00  0.00    +0.000 C 
ATOM     50  N   NME B   7     -24.490   8.318 -41.517  0.00  0.00    +0.000 N 
ATOM     51  H   NME B   7     -24.052   8.891 -40.813  0.00  0.00    +0.000 HD
ATOM     52  C   NME B   7     -25.208   8.967 -42.622  0.00  0.00    +0.000 C 
TER 
REMARK  Name = /home/xianyang/aimnet2_score_pipelines/work/L1234-fixed-receptor-eint-20260921/L2/P31153/prepared.pdb
REMARK                            x       y       z     vdW  Elec       q    Type
REMARK                         _______ _______ _______ _____ _____    ______ ____
ATOM      1  CH3 ACE C   1     -39.140  16.662 -43.610  0.00  0.00    +0.000 C 
ATOM      2  C   ACE C   1     -37.877  16.438 -44.443  0.00  0.00    +0.000 C 
ATOM      3  O   ACE C   1     -37.066  17.376 -44.576  0.00  0.00    +0.000 OA
ATOM      4  N   TYR C   2     -37.784  15.252 -45.011  0.00  0.00    +0.000 N 
ATOM      5  H   TYR C   2     -38.545  14.599 -44.874  0.00  0.00    +0.000 HD
ATOM      6  CA  TYR C   2     -36.638  14.786 -45.791  0.00  0.00    +0.000 C 
ATOM      7  C   TYR C   2     -37.066  14.567 -47.231  0.00  0.00    +0.000 C 
ATOM      8  O   TYR C   2     -38.212  14.175 -47.495  0.00  0.00    +0.000 OA
ATOM      9  CB  TYR C   2     -36.134  13.450 -45.252  0.00  0.00    +0.000 C 
ATOM     10  CG  TYR C   2     -35.264  13.507 -44.022  0.00  0.00    +0.000 A 
ATOM     11  CD1 TYR C   2     -35.783  13.516 -42.735  0.00  0.00    +0.000 A 
ATOM     12  CD2 TYR C   2     -33.885  13.608 -44.171  0.00  0.00    +0.000 A 
ATOM     13  CE1 TYR C   2     -34.940  13.588 -41.639  0.00  0.00    +0.000 A 
ATOM     14  CE2 TYR C   2     -33.048  13.624 -43.075  0.00  0.00    +0.000 A 
ATOM     15  CZ  TYR C   2     -33.577  13.646 -41.801  0.00  0.00    +0.000 A 
ATOM     16  OH  TYR C   2     -32.765  13.677 -40.697  0.00  0.00    +0.000 OA
ATOM     17  HH  TYR C   2     -31.900  14.025 -40.906  0.00  0.00    +0.000 HD
ATOM     18  N   MET C   3     -36.096  14.670 -48.112  0.00  0.00    +0.000 N 
ATOM     19  H   MET C   3     -35.187  14.994 -47.794  0.00  0.00    +0.000 HD
ATOM     20  CA  MET C   3     -36.202  14.064 -49.457  0.00  0.00    +0.000 C 
ATOM     21  C   MET C   3     -35.227  12.894 -49.546  0.00  0.00    +0.000 C 
ATOM     22  O   MET C   3     -34.308  12.761 -48.735  0.00  0.00    +0.000 OA
ATOM     23  CB  MET C   3     -35.950  15.075 -50.563  0.00  0.00    +0.000 C 
ATOM     24  CG  MET C   3     -34.666  15.697 -50.479  0.00  0.00    +0.000 C 
ATOM     25  SD  MET C   3     -34.506  16.858 -51.877  0.00  0.00    +0.000 S 
ATOM     26  CE  MET C   3     -34.329  15.676 -53.216  0.00  0.00    +0.000 C 
ATOM     27  N   GLN C   4     -35.523  11.976 -50.445  0.00  0.00    +0.000 N 
ATOM     28  H   GLN C   4     -36.289  12.119 -51.086  0.00  0.00    +0.000 HD
ATOM     29  CA  GLN C   4     -34.606  10.828 -50.679  0.00  0.00    +0.000 C 
ATOM     30  C   GLN C   4     -33.857  11.072 -52.001  0.00  0.00    +0.000 C 
ATOM     31  O   GLN C   4     -34.431  11.714 -52.915  0.00  0.00    +0.000 OA
ATOM     32  CB  GLN C   4     -35.371   9.512 -50.553  0.00  0.00    +0.000 C 
ATOM     33  CG  GLN C   4     -36.739   9.435 -51.198  0.00  0.00    +0.000 C 
ATOM     34  CD  GLN C   4     -37.534   8.274 -50.650  0.00  0.00    +0.000 C 
ATOM     35  OE1 GLN C   4     -37.045   7.135 -50.570  0.00  0.00    +0.000 OA
ATOM     36  NE2 GLN C   4     -38.767   8.557 -50.237  0.00  0.00    +0.000 N 
ATOM     37 HE21 GLN C   4     -39.300   7.773 -49.876  0.00  0.00    +0.000 HD
ATOM     38 HE22 GLN C   4     -39.106   9.509 -50.274  0.00  0.00    +0.000 HD
ATOM     39  N   ASP C   5     -32.594  10.652 -52.076  0.00  0.00    +0.000 N 
ATOM     40  H   ASP C   5     -32.180  10.248 -51.241  0.00  0.00    +0.000 HD
ATOM     41  CA  ASP C   5     -31.751  10.716 -53.293  0.00  0.00    +0.000 C 
ATOM     42  C   ASP C   5     -30.940   9.414 -53.335  0.00  0.00    +0.000 C 
ATOM     43  O   ASP C   5     -29.875   9.363 -52.633  0.00  0.00    +0.000 OA
ATOM     44  CB  ASP C   5     -30.928  12.002 -53.265  0.00  0.00    +0.000 C 
ATOM     45  CG  ASP C   5     -29.760  12.035 -54.229  0.00  0.00    +0.000 C 
ATOM     46  OD1 ASP C   5     -29.856  11.381 -55.321  0.00  0.00    +0.000 OA
ATOM     47  OD2 ASP C   5     -28.759  12.693 -53.866  0.00  0.00    +0.000 OA
ATOM     48  N   ARG C   6     -31.553   8.390 -53.920  0.00  0.00    +0.000 N 
ATOM     49  H   ARG C   6     -32.455   8.602 -54.322  0.00  0.00    +0.000 HD
ATOM     50  CA  ARG C   6     -30.908   7.122 -54.347  0.00  0.00    +0.000 C 
ATOM     51  C   ARG C   6     -30.500   6.401 -53.064  0.00  0.00    +0.000 C 
ATOM     52  O   ARG C   6     -29.317   5.986 -52.939  0.00  0.00    +0.000 OA
ATOM     53  CB  ARG C   6     -29.703   7.367 -55.264  0.00  0.00    +0.000 C 
ATOM     54  CG  ARG C   6     -30.054   7.853 -56.665  0.00  0.00    +0.000 C 
ATOM     55  CD  ARG C   6     -28.916   7.558 -57.633  0.00  0.00    +0.000 C 
ATOM     56  NE  ARG C   6     -28.575   8.710 -58.453  0.00  0.00    +0.000 N 
ATOM     57  HE  ARG C   6     -28.907   8.710 -59.402  0.00  0.00    +0.000 HD
ATOM     58  CZ  ARG C   6     -27.941   9.806 -58.029  0.00  0.00    +0.000 C 
ATOM     59  NH1 ARG C   6     -27.563   9.942 -56.767  0.00  0.00    +0.000 N 
ATOM     60 HH11 ARG C   6     -27.874   9.224 -56.140  0.00  0.00    +0.000 HD
ATOM     61 HH12 ARG C   6     -27.618  10.875 -56.378  0.00  0.00    +0.000 HD
ATOM     62  NH2 ARG C   6     -27.693  10.782 -58.885  0.00  0.00    +0.000 N 
ATOM     63 HH21 ARG C   6     -27.308  11.647 -58.533  0.00  0.00    +0.000 HD
ATOM     64 HH22 ARG C   6     -27.748  10.599 -59.885  0.00  0.00    +0.000 HD
ATOM     65  N   GLY C   7     -31.433   6.413 -52.108  0.00  0.00    +0.000 N 
ATOM     66  H   GLY C   7     -32.315   6.847 -52.323  0.00  0.00    +0.000 HD
ATOM     67  CA  GLY C   7     -31.276   5.770 -50.802  0.00  0.00    +0.000 C 
ATOM     68  C   GLY C   7     -30.627   6.690 -49.784  0.00  0.00    +0.000 C 
ATOM     69  O   GLY C   7     -30.680   6.291 -48.628  0.00  0.00    +0.000 OA
ATOM     70  N   ALA C   8     -29.978   7.804 -50.158  0.00  0.00    +0.000 N 
ATOM     71  H   ALA C   8     -29.948   8.051 -51.142  0.00  0.00    +0.000 HD
ATOM     72  CA  ALA C   8     -29.477   8.797 -49.201  0.00  0.00    +0.000 C 
ATOM     73  C   ALA C   8     -30.650   9.701 -48.822  0.00  0.00    +0.000 C 
ATOM     74  O   ALA C   8     -31.672   9.704 -49.514  0.00  0.00    +0.000 OA
ATOM     75  CB  ALA C   8     -28.296   9.575 -49.732  0.00  0.00    +0.000 C 
ATOM     76  N   VAL C   9     -30.467  10.400 -47.742  0.00  0.00    +0.000 N 
ATOM     77  H   VAL C   9     -29.578  10.436 -47.267  0.00  0.00    +0.000 HD
ATOM     78  CA  VAL C   9     -31.588  11.259 -47.280  0.00  0.00    +0.000 C 
ATOM     79  C   VAL C   9     -31.052  12.656 -47.119  0.00  0.00    +0.000 C 
ATOM     80  O   VAL C   9     -29.896  12.860 -46.785  0.00  0.00    +0.000 OA
ATOM     81  CB  VAL C   9     -32.268  10.725 -46.009  0.00  0.00    +0.000 C 
ATOM     82  CG1 VAL C   9     -32.933   9.429 -46.314  0.00  0.00    +0.000 C 
ATOM     83  CG2 VAL C   9     -31.312  10.630 -44.839  0.00  0.00    +0.000 C 
ATOM     84  N   LEU C  10     -31.891  13.617 -47.437  0.00  0.00    +0.000 N 
ATOM     85  H   LEU C  10     -32.816  13.376 -47.781  0.00  0.00    +0.000 HD
ATOM     86  CA  LEU C  10     -31.501  15.033 -47.423  0.00  0.00    +0.000 C 
ATOM     87  C   LEU C  10     -32.545  15.798 -46.622  0.00  0.00    +0.000 C 
ATOM     88  O   LEU C  10     -33.738  15.831 -47.010  0.00  0.00    +0.000 OA
ATOM     89  CB  LEU C  10     -31.476  15.578 -48.852  0.00  0.00    +0.000 C 
ATOM     90  CG  LEU C  10     -30.571  14.864 -49.864  0.00  0.00    +0.000 C 
ATOM     91  CD1 LEU C  10     -31.011  15.155 -51.299  0.00  0.00    +0.000 C 
ATOM     92  CD2 LEU C  10     -29.133  15.293 -49.690  0.00  0.00    +0.000 C 
ATOM     93  N   NME C  11     -32.153  16.457 -45.531  0.00  0.00    +0.000 N 
ATOM     94  H   NME C  11     -31.189  16.434 -45.240  0.00  0.00    +0.000 HD
ATOM     95  C   NME C  11     -33.137  17.235 -44.766  0.00  0.00    +0.000 C 
TER 
REMARK  Name = /home/xianyang/aimnet2_score_pipelines/work/L1234-fixed-receptor-eint-20260921/L2/P31153/prepared.pdb
REMARK                            x       y       z     vdW  Elec       q    Type
REMARK                         _______ _______ _______ _____ _____    ______ ____
ATOM      1  CH3 ACE D   1     -29.180   7.431 -33.606  0.00  0.00    +0.000 C 
ATOM      2  C   ACE D   1     -30.568   8.055 -33.648  0.00  0.00    +0.000 C 
ATOM      3  O   ACE D   1     -31.033   8.418 -34.765  0.00  0.00    +0.000 OA
ATOM      4  N   GLY D   2     -31.293   8.143 -32.531  0.00  0.00    +0.000 N 
ATOM      5  H   GLY D   2     -30.907   7.844 -31.649  0.00  0.00    +0.000 HD
ATOM      6  CA  GLY D   2     -32.598   8.818 -32.586  0.00  0.00    +0.000 C 
ATOM      7  C   GLY D   2     -33.613   8.085 -33.389  0.00  0.00    +0.000 C 
ATOM      8  O   GLY D   2     -34.562   8.709 -33.915  0.00  0.00    +0.000 OA
ATOM      9  N   GLY D   3     -33.518   6.769 -33.523  0.00  0.00    +0.000 N 
ATOM     10  H   GLY D   3     -32.726   6.306 -33.108  0.00  0.00    +0.000 HD
ATOM     11  CA  GLY D   3     -34.487   5.945 -34.221  0.00  0.00    +0.000 C 
ATOM     12  C   GLY D   3     -34.039   5.468 -35.579  0.00  0.00    +0.000 C 
ATOM     13  O   GLY D   3     -34.577   4.514 -36.128  0.00  0.00    +0.000 OA
ATOM     14  N   TRP D   4     -33.066   6.198 -36.142  0.00  0.00    +0.000 N 
ATOM     15  H   TRP D   4     -32.673   6.990 -35.653  0.00  0.00    +0.000 HD
ATOM     16  CA  TRP D   4     -32.483   5.784 -37.430  0.00  0.00    +0.000 C 
ATOM     17  C   TRP D   4     -31.653   4.532 -37.215  0.00  0.00    +0.000 C 
ATOM     18  O   TRP D   4     -31.207   4.208 -36.105  0.00  0.00    +0.000 OA
ATOM     19  CB  TRP D   4     -31.610   6.908 -37.959  0.00  0.00    +0.000 C 
ATOM     20  CG  TRP D   4     -32.358   8.148 -38.346  0.00  0.00    +0.000 A 
ATOM     21  CD1 TRP D   4     -32.552   9.268 -37.581  0.00  0.00    +0.000 A 
ATOM     22  CD2 TRP D   4     -32.921   8.436 -39.637  0.00  0.00    +0.000 A 
ATOM     23  NE1 TRP D   4     -33.205  10.235 -38.316  0.00  0.00    +0.000 N 
ATOM     24  HE1 TRP D   4     -33.445  11.155 -37.978  0.00  0.00    +0.000 HD
ATOM     25  CE2 TRP D   4     -33.454   9.739 -39.567  0.00  0.00    +0.000 A 
ATOM     26  CE3 TRP D   4     -33.069   7.717 -40.828  0.00  0.00    +0.000 A 
ATOM     27  CZ2 TRP D   4     -34.047  10.356 -40.671  0.00  0.00    +0.000 A 
ATOM     28  CZ3 TRP D   4     -33.661   8.359 -41.911  0.00  0.00    +0.000 A 
ATOM     29  CH2 TRP D   4     -34.173   9.631 -41.810  0.00  0.00    +0.000 A 
ATOM     30  N   GLY D   5     -31.385   3.853 -38.298  0.00  0.00    +0.000 N 
ATOM     31  H   GLY D   5     -31.832   4.086 -39.168  0.00  0.00    +0.000 HD
ATOM     32  CA  GLY D   5     -30.574   2.627 -38.190  0.00  0.00    +0.000 C 
ATOM     33  C   GLY D   5     -31.310   1.569 -37.432  0.00  0.00    +0.000 C 
ATOM     34  O   GLY D   5     -32.517   1.352 -37.637  0.00  0.00    +0.000 OA
ATOM     35  N   ALA D   6     -30.631   0.931 -36.468  0.00  0.00    +0.000 N 
ATOM     36  H   ALA D   6     -29.700   1.225 -36.215  0.00  0.00    +0.000 HD
ATOM     37  CA  ALA D   6     -31.232  -0.181 -35.695  0.00  0.00    +0.000 C 
ATOM     38  C   ALA D   6     -30.517  -0.270 -34.381  0.00  0.00    +0.000 C 
ATOM     39  O   ALA D   6     -29.461   0.345 -34.221  0.00  0.00    +0.000 OA
ATOM     40  CB  ALA D   6     -31.139  -1.479 -36.482  0.00  0.00    +0.000 C 
ATOM     41  N   HIS D   7     -31.083  -1.053 -33.481  0.00  0.00    +0.000 N 
ATOM     42  H   HIS D   7     -31.909  -1.580 -33.728  0.00  0.00    +0.000 HD
ATOM     43  CA  HIS D   7     -30.527  -1.218 -32.132  0.00  0.00    +0.000 C 
ATOM     44  C   HIS D   7     -30.672  -2.681 -31.723  0.00  0.00    +0.000 C 
ATOM     45  O   HIS D   7     -31.683  -3.294 -31.985  0.00  0.00    +0.000 OA
ATOM     46  CB  HIS D   7     -31.187  -0.251 -31.143  0.00  0.00    +0.000 C 
ATOM     47  CG  HIS D   7     -30.344   0.011 -29.964  0.00  0.00    +0.000 A 
ATOM     48  ND1 HIS D   7     -29.966  -0.966 -29.053  0.00  0.00    +0.000 N 
ATOM     49  HD1 HIS D   7     -30.297  -1.919 -29.037  0.00  0.00    +0.000 HD
ATOM     50  CD2 HIS D   7     -29.723   1.159 -29.545  0.00  0.00    +0.000 A 
ATOM     51  CE1 HIS D   7     -29.164  -0.436 -28.171  0.00  0.00    +0.000 A 
ATOM     52  NE2 HIS D   7     -28.986   0.899 -28.461  0.00  0.00    +0.000 NA
ATOM     53  N   NME D   8     -29.632  -3.177 -31.050  0.00  0.00    +0.000 N 
ATOM     54  H   NME D   8     -28.829  -2.592 -30.869  0.00  0.00    +0.000 HD
ATOM     55  C   NME D   8     -29.645  -4.568 -30.563  0.00  0.00    +0.000 C 
TER 
REMARK  Name = /home/xianyang/aimnet2_score_pipelines/work/L1234-fixed-receptor-eint-20260921/L2/P31153/prepared.pdb
REMARK                            x       y       z     vdW  Elec       q    Type
REMARK                         _______ _______ _______ _____ _____    ______ ____
ATOM      1  CH3 ACE E   1     -21.486   4.686 -49.148  0.00  0.00    +0.000 C 
ATOM      2  C   ACE E   1     -21.899   6.010 -48.516  0.00  0.00    +0.000 C 
ATOM      3  O   ACE E   1     -21.078   6.663 -47.893  0.00  0.00    +0.000 OA
ATOM      4  N   ARG E   2     -23.113   6.378 -48.793  0.00  0.00    +0.000 N 
ATOM      5  H   ARG E   2     -23.678   5.783 -49.379  0.00  0.00    +0.000 HD
ATOM      6  CA  ARG E   2     -23.654   7.642 -48.244  0.00  0.00    +0.000 C 
ATOM      7  C   ARG E   2     -24.277   7.361 -46.867  0.00  0.00    +0.000 C 
ATOM      8  O   ARG E   2     -24.230   8.244 -45.990  0.00  0.00    +0.000 OA
ATOM      9  CB  ARG E   2     -24.671   8.240 -49.198  0.00  0.00    +0.000 C 
ATOM     10  CG  ARG E   2     -24.032   8.647 -50.520  0.00  0.00    +0.000 C 
ATOM     11  CD  ARG E   2     -24.892   9.504 -51.398  0.00  0.00    +0.000 C 
ATOM     12  NE  ARG E   2     -25.245  10.757 -50.764  0.00  0.00    +0.000 N 
ATOM     13  HE  ARG E   2     -24.852  10.975 -49.865  0.00  0.00    +0.000 HD
ATOM     14  CZ  ARG E   2     -26.067  11.633 -51.329  0.00  0.00    +0.000 C 
ATOM     15  NH1 ARG E   2     -26.545  11.386 -52.541  0.00  0.00    +0.000 N 
ATOM     16 HH11 ARG E   2     -26.428  10.472 -52.940  0.00  0.00    +0.000 HD
ATOM     17 HH12 ARG E   2     -27.256  11.998 -52.967  0.00  0.00    +0.000 HD
ATOM     18  NH2 ARG E   2     -26.383  12.741 -50.686  0.00  0.00    +0.000 N 
ATOM     19 HH21 ARG E   2     -25.994  12.960 -49.787  0.00  0.00    +0.000 HD
ATOM     20 HH22 ARG E   2     -27.028  13.369 -51.141  0.00  0.00    +0.000 HD
ATOM     21  N   ARG E   3     -24.841   6.179 -46.675  0.00  0.00    +0.000 N 
ATOM     22  H   ARG E   3     -24.825   5.486 -47.409  0.00  0.00    +0.000 HD
ATOM     23  CA  ARG E   3     -25.312   5.769 -45.338  0.00  0.00    +0.000 C 
ATOM     24  C   ARG E   3     -25.215   4.269 -45.261  0.00  0.00    +0.000 C 
ATOM     25  O   ARG E   3     -25.262   3.553 -46.278  0.00  0.00    +0.000 OA
ATOM     26  CB  ARG E   3     -26.682   6.336 -44.986  0.00  0.00    +0.000 C 
ATOM     27  CG  ARG E   3     -27.845   5.878 -45.799  0.00  0.00    +0.000 C 
ATOM     28  CD  ARG E   3     -29.076   6.669 -45.365  0.00  0.00    +0.000 C 
ATOM     29  NE  ARG E   3     -30.278   6.261 -46.007  0.00  0.00    +0.000 N 
ATOM     30  HE  ARG E   3     -30.258   6.138 -47.009  0.00  0.00    +0.000 HD
ATOM     31  CZ  ARG E   3     -31.408   5.987 -45.395  0.00  0.00    +0.000 C 
ATOM     32  NH1 ARG E   3     -32.457   5.648 -46.075  0.00  0.00    +0.000 N 
ATOM     33 HH11 ARG E   3     -33.340   5.477 -45.627  0.00  0.00    +0.000 HD
ATOM     34 HH12 ARG E   3     -32.374   5.620 -47.082  0.00  0.00    +0.000 HD
ATOM     35  NH2 ARG E   3     -31.499   6.088 -44.080  0.00  0.00    +0.000 N 
ATOM     36 HH21 ARG E   3     -32.344   5.773 -43.602  0.00  0.00    +0.000 HD
ATOM     37 HH22 ARG E   3     -30.681   6.346 -43.545  0.00  0.00    +0.000 HD
ATOM     38  N   VAL E   4     -25.099   3.769 -44.044  0.00  0.00    +0.000 N 
ATOM     39  H   VAL E   4     -25.052   4.400 -43.249  0.00  0.00    +0.000 HD
ATOM     40  CA  VAL E   4     -24.825   2.331 -43.849  0.00  0.00    +0.000 C 
ATOM     41  C   VAL E   4     -25.180   1.908 -42.448  0.00  0.00    +0.000 C 
ATOM     42  O   VAL E   4     -24.991   2.687 -41.482  0.00  0.00    +0.000 OA
ATOM     43  CB  VAL E   4     -23.388   1.987 -44.181  0.00  0.00    +0.000 C 
ATOM     44  CG1 VAL E   4     -22.399   2.588 -43.229  0.00  0.00    +0.000 C 
ATOM     45  CG2 VAL E   4     -23.188   0.468 -44.330  0.00  0.00    +0.000 C 
ATOM     46  N   LEU E   5     -25.688   0.682 -42.365  0.00  0.00    +0.000 N 
ATOM     47  H   LEU E   5     -25.805   0.160 -43.230  0.00  0.00    +0.000 HD
ATOM     48  CA  LEU E   5     -26.006  -0.047 -41.108  0.00  0.00    +0.000 C 
ATOM     49  C   LEU E   5     -25.098  -1.265 -41.034  0.00  0.00    +0.000 C 
ATOM     50  O   LEU E   5     -24.958  -1.998 -42.023  0.00  0.00    +0.000 OA
ATOM     51  CB  LEU E   5     -27.480  -0.416 -41.116  0.00  0.00    +0.000 C 
ATOM     52  CG  LEU E   5     -27.992  -1.151 -39.895  0.00  0.00    +0.000 C 
ATOM     53  CD1 LEU E   5     -28.001  -0.239 -38.660  0.00  0.00    +0.000 C 
ATOM     54  CD2 LEU E   5     -29.376  -1.679 -40.155  0.00  0.00    +0.000 C 
ATOM     55  N   VAL E   6     -24.522  -1.491 -39.876  0.00  0.00    +0.000 N 
ATOM     56  H   VAL E   6     -24.678  -0.814 -39.134  0.00  0.00    +0.000 HD
ATOM     57  CA  VAL E   6     -23.627  -2.632 -39.576  0.00  0.00    +0.000 C 
ATOM     58  C   VAL E   6     -24.244  -3.388 -38.416  0.00  0.00    +0.000 C 
ATOM     59  O   VAL E   6     -24.505  -2.781 -37.368  0.00  0.00    +0.000 OA
ATOM     60  CB  VAL E   6     -22.233  -2.123 -39.201  0.00  0.00    +0.000 C 
ATOM     61  CG1 VAL E   6     -21.337  -3.287 -38.878  0.00  0.00    +0.000 C 
ATOM     62  CG2 VAL E   6     -21.636  -1.241 -40.335  0.00  0.00    +0.000 C 
ATOM     63  N   GLN E   7     -24.425  -4.688 -38.554  0.00  0.00    +0.000 N 
ATOM     64  H   GLN E   7     -24.141  -5.115 -39.430  0.00  0.00    +0.000 HD
ATOM     65  CA  GLN E   7     -24.755  -5.573 -37.429  0.00  0.00    +0.000 C 
ATOM     66  C   GLN E   7     -23.545  -6.415 -37.090  0.00  0.00    +0.000 C 
ATOM     67  O   GLN E   7     -22.836  -6.906 -37.990  0.00  0.00    +0.000 OA
ATOM     68  CB  GLN E   7     -25.967  -6.459 -37.687  0.00  0.00    +0.000 C 
ATOM     69  CG  GLN E   7     -26.511  -7.053 -36.380  0.00  0.00    +0.000 C 
ATOM     70  CD  GLN E   7     -27.502  -8.172 -36.508  0.00  0.00    +0.000 C 
ATOM     71  OE1 GLN E   7     -27.298  -9.162 -37.209  0.00  0.00    +0.000 OA
ATOM     72  NE2 GLN E   7     -28.579  -8.076 -35.774  0.00  0.00    +0.000 N 
ATOM     73 HE21 GLN E   7     -29.250  -8.839 -35.770  0.00  0.00    +0.000 HD
ATOM     74 HE22 GLN E   7     -28.725  -7.267 -35.199  0.00  0.00    +0.000 HD
ATOM     75  N   VAL E   8     -23.360  -6.647 -35.790  0.00  0.00    +0.000 N 
ATOM     76  H   VAL E   8     -23.964  -6.183 -35.117  0.00  0.00    +0.000 HD
ATOM     77  CA  VAL E   8     -22.427  -7.680 -35.276  0.00  0.00    +0.000 C 
ATOM     78  C   VAL E   8     -23.142  -8.443 -34.173  0.00  0.00    +0.000 C 
ATOM     79  O   VAL E   8     -24.122  -7.923 -33.598  0.00  0.00    +0.000 OA
ATOM     80  CB  VAL E   8     -21.116  -7.101 -34.737  0.00  0.00    +0.000 C 
ATOM     81  CG1 VAL E   8     -20.299  -6.480 -35.837  0.00  0.00    +0.000 C 
ATOM     82  CG2 VAL E   8     -21.373  -6.058 -33.669  0.00  0.00    +0.000 C 
ATOM     83  N   NME E   9     -22.681  -9.636 -33.867  0.00  0.00    +0.000 N 
ATOM     84  H   NME E   9     -21.944 -10.040 -34.433  0.00  0.00    +0.000 HD
ATOM     85  C   NME E   9     -23.273 -10.408 -32.749  0.00  0.00    +0.000 C 
TER 
REMARK  Name = /home/xianyang/aimnet2_score_pipelines/work/L1234-fixed-receptor-eint-20260921/L2/P31153/prepared.pdb
REMARK                            x       y       z     vdW  Elec       q    Type
REMARK                         _______ _______ _______ _____ _____    ______ ____
ATOM      1  CH3 ACE F   1     -22.010 -12.668 -37.515  0.00  0.00    +0.000 C 
ATOM      2  C   ACE F   1     -21.603 -11.218 -37.662  0.00  0.00    +0.000 C 
ATOM      3  O   ACE F   1     -21.468 -10.518 -36.636  0.00  0.00    +0.000 OA
ATOM      4  N   ILE F   2     -21.426 -10.801 -38.909  0.00  0.00    +0.000 N 
ATOM      5  H   ILE F   2     -21.567 -11.448 -39.671  0.00  0.00    +0.000 HD
ATOM      6  CA  ILE F   2     -21.214  -9.381 -39.272  0.00  0.00    +0.000 C 
ATOM      7  C   ILE F   2     -22.009  -9.142 -40.534  0.00  0.00    +0.000 C 
ATOM      8  O   ILE F   2     -21.961  -9.993 -41.467  0.00  0.00    +0.000 OA
ATOM      9  CB  ILE F   2     -19.728  -9.062 -39.515  0.00  0.00    +0.000 C 
ATOM     10  CG1 ILE F   2     -18.834  -9.461 -38.345  0.00  0.00    +0.000 C 
ATOM     11  CG2 ILE F   2     -19.618  -7.562 -39.804  0.00  0.00    +0.000 C 
ATOM     12  CD1 ILE F   2     -17.350  -9.383 -38.684  0.00  0.00    +0.000 C 
ATOM     13  N   SER F   3     -22.786  -8.078 -40.609  0.00  0.00    +0.000 N 
ATOM     14  H   SER F   3     -22.793  -7.425 -39.830  0.00  0.00    +0.000 HD
ATOM     15  CA  SER F   3     -23.687  -7.844 -41.736  0.00  0.00    +0.000 C 
ATOM     16  C   SER F   3     -23.687  -6.372 -42.081  0.00  0.00    +0.000 C 
ATOM     17  O   SER F   3     -23.530  -5.519 -41.182  0.00  0.00    +0.000 OA
ATOM     18  CB  SER F   3     -25.053  -8.312 -41.397  0.00  0.00    +0.000 C 
ATOM     19  OG  SER F   3     -24.997  -9.622 -40.882  0.00  0.00    +0.000 OA
ATOM     20  HG  SER F   3     -24.796  -9.571 -39.943  0.00  0.00    +0.000 HD
ATOM     21  N   ILE F   4     -23.954  -6.072 -43.344  0.00  0.00    +0.000 N 
ATOM     22  H   ILE F   4     -24.157  -6.808 -44.005  0.00  0.00    +0.000 HD
ATOM     23  CA  ILE F   4     -23.909  -4.684 -43.868  0.00  0.00    +0.000 C 
ATOM     24  C   ILE F   4     -25.131  -4.403 -44.691  0.00  0.00    +0.000 C 
ATOM     25  O   ILE F   4     -25.485  -5.217 -45.564  0.00  0.00    +0.000 OA
ATOM     26  CB  ILE F   4     -22.679  -4.465 -44.755  0.00  0.00    +0.000 C 
ATOM     27  CG1 ILE F   4     -21.372  -4.835 -44.072  0.00  0.00    +0.000 C 
ATOM     28  CG2 ILE F   4     -22.645  -3.032 -45.312  0.00  0.00    +0.000 C 
ATOM     29  CD1 ILE F   4     -21.014  -4.014 -42.929  0.00  0.00    +0.000 C 
ATOM     30  N   PHE F   5     -25.779  -3.278 -44.455  0.00  0.00    +0.000 N 
ATOM     31  H   PHE F   5     -25.450  -2.694 -43.693  0.00  0.00    +0.000 HD
ATOM     32  CA  PHE F   5     -26.936  -2.784 -45.246  0.00  0.00    +0.000 C 
ATOM     33  C   PHE F   5     -26.596  -1.376 -45.710  0.00  0.00    +0.000 C 
ATOM     34  O   PHE F   5     -26.463  -0.509 -44.828  0.00  0.00    +0.000 OA
ATOM     35  CB  PHE F   5     -28.211  -2.884 -44.407  0.00  0.00    +0.000 C 
ATOM     36  CG  PHE F   5     -29.472  -2.417 -45.081  0.00  0.00    +0.000 A 
ATOM     37  CD1 PHE F   5     -29.848  -2.851 -46.349  0.00  0.00    +0.000 A 
ATOM     38  CD2 PHE F   5     -30.377  -1.624 -44.407  0.00  0.00    +0.000 A 
ATOM     39  CE1 PHE F   5     -31.061  -2.452 -46.923  0.00  0.00    +0.000 A 
ATOM     40  CE2 PHE F   5     -31.594  -1.240 -44.969  0.00  0.00    +0.000 A 
ATOM     41  CZ  PHE F   5     -31.937  -1.666 -46.223  0.00  0.00    +0.000 A 
ATOM     42  N   HIS F   6     -26.504  -1.124 -47.019  0.00  0.00    +0.000 N 
ATOM     43  H   HIS F   6     -26.650  -1.895 -47.676  0.00  0.00    +0.000 HD
ATOM     44  CA  HIS F   6     -26.063   0.199 -47.504  0.00  0.00    +0.000 C 
ATOM     45  C   HIS F   6     -27.202   1.001 -48.068  0.00  0.00    +0.000 C 
ATOM     46  O   HIS F   6     -26.880   2.101 -48.605  0.00  0.00    +0.000 OA
ATOM     47  CB  HIS F   6     -24.882   0.089 -48.431  0.00  0.00    +0.000 C 
ATOM     48  CG  HIS F   6     -25.147  -0.622 -49.716  0.00  0.00    +0.000 A 
ATOM     49  ND1 HIS F   6     -26.393  -0.675 -50.315  0.00  0.00    +0.000 N 
ATOM     50  HD1 HIS F   6     -27.252  -0.569 -49.816  0.00  0.00    +0.000 HD
ATOM     51  CD2 HIS F   6     -24.299  -1.328 -50.506  0.00  0.00    +0.000 A 
ATOM     52  CE1 HIS F   6     -26.282  -1.377 -51.455  0.00  0.00    +0.000 A 
ATOM     53  NE2 HIS F   6     -25.022  -1.789 -51.546  0.00  0.00    +0.000 NA
ATOM     54  N   TYR F   7     -28.434   0.596 -47.927  0.00  0.00    +0.000 N 
ATOM     55  H   TYR F   7     -28.587  -0.268 -47.421  0.00  0.00    +0.000 HD
ATOM     56  CA  TYR F   7     -29.632   1.382 -48.315  0.00  0.00    +0.000 C 
ATOM     57  C   TYR F   7     -29.586   1.710 -49.806  0.00  0.00    +0.000 C 
ATOM     58  O   TYR F   7     -30.328   2.635 -50.202  0.00  0.00    +0.000 OA
ATOM     59  CB  TYR F   7     -29.700   2.677 -47.489  0.00  0.00    +0.000 C 
ATOM     60  CG  TYR F   7     -29.956   2.452 -46.005  0.00  0.00    +0.000 A 
ATOM     61  CD1 TYR F   7     -28.887   2.247 -45.144  0.00  0.00    +0.000 A 
ATOM     62  CD2 TYR F   7     -31.227   2.399 -45.506  0.00  0.00    +0.000 A 
ATOM     63  CE1 TYR F   7     -29.128   2.078 -43.778  0.00  0.00    +0.000 A 
ATOM     64  CE2 TYR F   7     -31.475   2.196 -44.158  0.00  0.00    +0.000 A 
ATOM     65  CZ  TYR F   7     -30.403   2.043 -43.303  0.00  0.00    +0.000 A 
ATOM     66  OH  TYR F   7     -30.630   1.845 -41.943  0.00  0.00    +0.000 OA
ATOM     67  HH  TYR F   7     -29.822   1.902 -41.434  0.00  0.00    +0.000 HD
ATOM     68  N   GLY F   8     -28.800   1.011 -50.610  0.00  0.00    +0.000 N 
ATOM     69  H   GLY F   8     -28.395   0.165 -50.272  0.00  0.00    +0.000 HD
ATOM     70  CA  GLY F   8     -28.690   1.337 -52.045  0.00  0.00    +0.000 C 
ATOM     71  C   GLY F   8     -27.727   2.476 -52.294  0.00  0.00    +0.000 C 
ATOM     72  O   GLY F   8     -27.705   3.040 -53.422  0.00  0.00    +0.000 OA
ATOM     73  N   NME F   9     -26.836   2.819 -51.374  0.00  0.00    +0.000 N 
ATOM     74  H   NME F   9     -26.847   2.337 -50.483  0.00  0.00    +0.000 HD
ATOM     75  C   NME F   9     -26.045   4.079 -51.472  0.00  0.00    +0.000 C 
TER 
REMARK  Name = /home/xianyang/aimnet2_score_pipelines/work/L1234-fixed-receptor-eint-20260921/L2/P31153/prepared.pdb
REMARK                            x       y       z     vdW  Elec       q    Type
REMARK                         _______ _______ _______ _____ _____    ______ ____
ATOM      1  CH3 ACE G   1     -20.187  -1.906 -54.208  0.00  0.00    +0.000 C 
ATOM      2  C   ACE G   1     -21.362  -2.629 -53.575  0.00  0.00    +0.000 C 
ATOM      3  O   ACE G   1     -22.254  -2.028 -52.957  0.00  0.00    +0.000 OA
ATOM      4  N   SER G   2     -21.398  -3.925 -53.794  0.00  0.00    +0.000 N 
ATOM      5  H   SER G   2     -20.688  -4.325 -54.379  0.00  0.00    +0.000 HD
ATOM      6  CA  SER G   2     -22.392  -4.801 -53.137  0.00  0.00    +0.000 C 
ATOM      7  C   SER G   2     -22.137  -4.799 -51.624  0.00  0.00    +0.000 C 
ATOM      8  O   SER G   2     -21.007  -4.551 -51.181  0.00  0.00    +0.000 OA
ATOM      9  CB  SER G   2     -22.346  -6.196 -53.687  0.00  0.00    +0.000 C 
ATOM     10  OG  SER G   2     -21.149  -6.801 -53.329  0.00  0.00    +0.000 OA
ATOM     11  HG  SER G   2     -20.454  -6.139 -53.417  0.00  0.00    +0.000 HD
ATOM     12  N   GLU G   3     -23.157  -5.178 -50.875  0.00  0.00    +0.000 N 
ATOM     13  H   GLU G   3     -24.085  -5.224 -51.273  0.00  0.00    +0.000 HD
ATOM     14  CA  GLU G   3     -23.012  -5.366 -49.410  0.00  0.00    +0.000 C 
ATOM     15  C   GLU G   3     -21.995  -6.473 -49.161  0.00  0.00    +0.000 C 
ATOM     16  O   GLU G   3     -21.183  -6.370 -48.220  0.00  0.00    +0.000 OA
ATOM     17  CB  GLU G   3     -24.371  -5.616 -48.772  0.00  0.00    +0.000 C 
ATOM     18  CG  GLU G   3     -25.202  -4.341 -48.803  0.00  0.00    +0.000 C 
ATOM     19  CD  GLU G   3     -26.700  -4.434 -48.900  0.00  0.00    +0.000 C 
ATOM     20  OE1 GLU G   3     -27.200  -5.455 -49.454  0.00  0.00    +0.000 OA
ATOM     21  OE2 GLU G   3     -27.405  -3.505 -48.506  0.00  0.00    +0.000 OA
ATOM     22  N   ARG G   4     -21.941  -7.518 -50.007  0.00  0.00    +0.000 N 
ATOM     23  H   ARG G   4     -22.593  -7.541 -50.778  0.00  0.00    +0.000 HD
ATOM     24  CA  ARG G   4     -20.920  -8.564 -49.857  0.00  0.00    +0.000 C 
ATOM     25  C   ARG G   4     -19.518  -7.954 -49.936  0.00  0.00    +0.000 C 
ATOM     26  O   ARG G   4     -18.620  -8.321 -49.185  0.00  0.00    +0.000 OA
ATOM     27  CB  ARG G   4     -21.158  -9.661 -50.899  0.00  0.00    +0.000 C 
ATOM     28  N   NME G   5     -19.293  -7.112 -50.935  0.00  0.00    +0.000 N 
ATOM     29  H   NME G   5     -20.089  -6.792 -51.468  0.00  0.00    +0.000 HD
ATOM     30  C   NME G   5     -17.977  -6.464 -51.133  0.00  0.00    +0.000 C 
TER 
REMARK  Name = /home/xianyang/aimnet2_score_pipelines/work/L1234-fixed-receptor-eint-20260921/L2/P31153/prepared.pdb
REMARK                            x       y       z     vdW  Elec       q    Type
REMARK                         _______ _______ _______ _____ _____    ______ ____
ATOM      1  CG  ARG G   4     -20.133 -10.787 -50.882  0.00  0.00    +0.000 C 
ATOM      2  CD  ARG G   4     -20.200 -11.655 -52.158  0.00  0.00    +0.000 C 
ATOM      3  NE  ARG G   4     -19.239 -11.466 -51.031  0.00  0.00    +0.000 N 
ATOM      4  HE  ARG G   4     -18.239 -11.399 -51.162  0.00  0.00    +0.000 HD
ATOM      5  CZ  ARG G   4     -19.859 -11.436 -49.749  0.00  0.00    +0.000 C 
ATOM      6  NH1 ARG G   4     -19.790 -11.334 -48.417  0.00  0.00    +0.000 N 
ATOM      7 HH11 ARG G   4     -20.413 -11.947 -47.931  0.00  0.00    +0.000 HD
ATOM      8 HH12 ARG G   4     -19.886 -10.402 -48.008  0.00  0.00    +0.000 HD
ATOM      9  NH2 ARG G   4     -18.844 -11.243 -48.845  0.00  0.00    +0.000 N 
ATOM     10 HH21 ARG G   4     -18.272 -12.043 -48.652  0.00  0.00    +0.000 HD
ATOM     11 HH22 ARG G   4     -18.310 -10.392 -48.969  0.00  0.00    +0.000 HD
TER 
REMARK  Name = /home/xianyang/aimnet2_score_pipelines/work/L1234-fixed-receptor-eint-20260921/L2/P31153/prepared.pdb
REMARK                            x       y       z     vdW  Elec       q    Type
REMARK                         _______ _______ _______ _____ _____    ______ ____
ATOM      1  CH3 ACE H   1     -27.066 -11.374 -52.328  0.00  0.00    +0.000 C 
ATOM      2  C   ACE H   1     -27.600 -12.066 -51.075  0.00  0.00    +0.000 C 
ATOM      3  O   ACE H   1     -28.716 -11.726 -50.652  0.00  0.00    +0.000 OA
ATOM      4  N   THR H   2     -26.880 -13.032 -50.506  0.00  0.00    +0.000 N 
ATOM      5  H   THR H   2     -25.980 -13.286 -50.879  0.00  0.00    +0.000 HD
ATOM      6  CA  THR H   2     -27.281 -13.576 -49.183  0.00  0.00    +0.000 C 
ATOM      7  C   THR H   2     -26.586 -12.786 -48.096  0.00  0.00    +0.000 C 
ATOM      8  O   THR H   2     -25.581 -12.117 -48.282  0.00  0.00    +0.000 OA
ATOM      9  CB  THR H   2     -27.044 -15.060 -48.969  0.00  0.00    +0.000 C 
ATOM     10  OG1 THR H   2     -25.655 -15.293 -48.786  0.00  0.00    +0.000 OA
ATOM     11  HG1 THR H   2     -25.371 -14.822 -48.000  0.00  0.00    +0.000 HD
ATOM     12  CG2 THR H   2     -27.572 -15.948 -50.073  0.00  0.00    +0.000 C 
ATOM     13  N   PHE H   3     -27.219 -12.794 -46.925  0.00  0.00    +0.000 N 
ATOM     14  H   PHE H   3     -28.088 -13.315 -46.818  0.00  0.00    +0.000 HD
ATOM     15  CA  PHE H   3     -26.680 -12.103 -45.745  0.00  0.00    +0.000 C 
ATOM     16  C   PHE H   3     -27.121 -12.847 -44.499  0.00  0.00    +0.000 C 
ATOM     17  O   PHE H   3     -28.046 -13.647 -44.513  0.00  0.00    +0.000 OA
ATOM     18  CB  PHE H   3     -27.150 -10.649 -45.701  0.00  0.00    +0.000 C 
ATOM     19  CG  PHE H   3     -28.628 -10.425 -45.521  0.00  0.00    +0.000 A 
ATOM     20  CD1 PHE H   3     -29.499 -10.524 -46.585  0.00  0.00    +0.000 A 
ATOM     21  CD2 PHE H   3     -29.158 -10.180 -44.255  0.00  0.00    +0.000 A 
ATOM     22  CE1 PHE H   3     -30.861 -10.325 -46.408  0.00  0.00    +0.000 A 
ATOM     23  CE2 PHE H   3     -30.514  -9.987 -44.073  0.00  0.00    +0.000 A 
ATOM     24  CZ  PHE H   3     -31.365 -10.032 -45.155  0.00  0.00    +0.000 A 
ATOM     25  N   LEU H   4     -26.426 -12.536 -43.421  0.00  0.00    +0.000 N 
ATOM     26  H   LEU H   4     -25.750 -11.789 -43.470  0.00  0.00    +0.000 HD
ATOM     27  CA  LEU H   4     -26.736 -13.079 -42.080  0.00  0.00    +0.000 C 
ATOM     28  C   LEU H   4     -27.530 -12.042 -41.285  0.00  0.00    +0.000 C 
ATOM     29  O   LEU H   4     -27.259 -10.831 -41.405  0.00  0.00    +0.000 OA
ATOM     30  CB  LEU H   4     -25.480 -13.473 -41.324  0.00  0.00    +0.000 C 
ATOM     31  CG  LEU H   4     -24.541 -14.456 -42.021  0.00  0.00    +0.000 C 
ATOM     32  CD1 LEU H   4     -23.354 -14.766 -41.106  0.00  0.00    +0.000 C 
ATOM     33  CD2 LEU H   4     -25.293 -15.711 -42.441  0.00  0.00    +0.000 C 
ATOM     34  N   PHE H   5     -28.398 -12.514 -40.434  0.00  0.00    +0.000 N 
ATOM     35  H   PHE H   5     -28.572 -13.505 -40.361  0.00  0.00    +0.000 HD
ATOM     36  CA  PHE H   5     -29.024 -11.614 -39.444  0.00  0.00    +0.000 C 
ATOM     37  C   PHE H   5     -29.244 -12.373 -38.156  0.00  0.00    +0.000 C 
ATOM     38  O   PHE H   5     -29.659 -13.546 -38.191  0.00  0.00    +0.000 OA
ATOM     39  CB  PHE H   5     -30.324 -11.045 -39.960  0.00  0.00    +0.000 C 
ATOM     40  CG  PHE H   5     -30.817  -9.854 -39.153  0.00  0.00    +0.000 A 
ATOM     41  CD1 PHE H   5     -31.590 -10.056 -38.034  0.00  0.00    +0.000 A 
ATOM     42  CD2 PHE H   5     -30.320  -8.598 -39.382  0.00  0.00    +0.000 A 
ATOM     43  CE1 PHE H   5     -31.989  -9.001 -37.240  0.00  0.00    +0.000 A 
ATOM     44  CE2 PHE H   5     -30.747  -7.538 -38.561  0.00  0.00    +0.000 A 
ATOM     45  CZ  PHE H   5     -31.569  -7.775 -37.513  0.00  0.00    +0.000 A 
ATOM     46  N   THR H   6     -28.998 -11.700 -37.030  0.00  0.00    +0.000 N 
ATOM     47  H   THR H   6     -28.675 -10.739 -37.092  0.00  0.00    +0.000 HD
ATOM     48  CA  THR H   6     -29.058 -12.349 -35.705  0.00  0.00    +0.000 C 
ATOM     49  C   THR H   6     -30.092 -11.653 -34.829  0.00  0.00    +0.000 C 
ATOM     50  O   THR H   6     -30.138 -10.411 -34.769  0.00  0.00    +0.000 OA
ATOM     51  CB  THR H   6     -27.671 -12.288 -35.083  0.00  0.00    +0.000 C 
ATOM     52  OG1 THR H   6     -26.801 -13.003 -35.964  0.00  0.00    +0.000 OA
ATOM     53  HG1 THR H   6     -26.455 -12.358 -36.588  0.00  0.00    +0.000 HD
ATOM     54  CG2 THR H   6     -27.633 -12.905 -33.704  0.00  0.00    +0.000 C 
ATOM     55  N   NME H   7     -30.903 -12.437 -34.134  0.00  0.00    +0.000 N 
ATOM     56  H   NME H   7     -30.832 -13.433 -34.276  0.00  0.00    +0.000 HD
ATOM     57  C   NME H   7     -31.811 -11.958 -33.076  0.00  0.00    +0.000 C 
TER 
REMARK  Name = /home/xianyang/aimnet2_score_pipelines/work/L1234-fixed-receptor-eint-20260921/L2/P31153/prepared.pdb
REMARK                            x       y       z     vdW  Elec       q    Type
REMARK                         _______ _______ _______ _____ _____    ______ ____
ATOM      1  CH3 ACE I   1     -41.536   8.056 -31.195  0.00  0.00    +0.000 C 
ATOM      2  C   ACE I   1     -41.696   6.570 -30.993  0.00  0.00    +0.000 C 
ATOM      3  O   ACE I   1     -41.151   5.992 -30.039  0.00  0.00    +0.000 OA
ATOM      4  N   MET I   2     -42.391   5.927 -31.933  0.00  0.00    +0.000 N 
ATOM      5  H   MET I   2     -42.835   6.465 -32.673  0.00  0.00    +0.000 HD
ATOM      6  CA  MET I   2     -42.698   4.475 -31.813  0.00  0.00    +0.000 C 
ATOM      7  C   MET I   2     -42.718   3.922 -33.225  0.00  0.00    +0.000 C 
ATOM      8  O   MET I   2     -43.119   4.615 -34.191  0.00  0.00    +0.000 OA
ATOM      9  CB  MET I   2     -44.053   4.207 -31.155  0.00  0.00    +0.000 C 
ATOM     10  CG  MET I   2     -44.247   4.833 -29.799  0.00  0.00    +0.000 C 
ATOM     11  SD  MET I   2     -44.756   6.580 -29.890  0.00  0.00    +0.000 S 
ATOM     12  CE  MET I   2     -44.328   7.119 -28.235  0.00  0.00    +0.000 C 
ATOM     13  N   PHE I   3     -42.353   2.659 -33.352  0.00  0.00    +0.000 N 
ATOM     14  H   PHE I   3     -42.140   2.106 -32.537  0.00  0.00    +0.000 HD
ATOM     15  CA  PHE I   3     -42.379   1.980 -34.640  0.00  0.00    +0.000 C 
ATOM     16  C   PHE I   3     -43.180   0.704 -34.583  0.00  0.00    +0.000 C 
ATOM     17  O   PHE I   3     -43.157  -0.023 -33.574  0.00  0.00    +0.000 OA
ATOM     18  CB  PHE I   3     -40.999   1.638 -35.148  0.00  0.00    +0.000 C 
ATOM     19  CG  PHE I   3     -40.098   2.797 -35.434  0.00  0.00    +0.000 A 
ATOM     20  CD1 PHE I   3     -39.261   3.285 -34.448  0.00  0.00    +0.000 A 
ATOM     21  CD2 PHE I   3     -40.012   3.330 -36.706  0.00  0.00    +0.000 A 
ATOM     22  CE1 PHE I   3     -38.337   4.266 -34.736  0.00  0.00    +0.000 A 
ATOM     23  CE2 PHE I   3     -39.084   4.321 -37.003  0.00  0.00    +0.000 A 
ATOM     24  CZ  PHE I   3     -38.240   4.754 -36.014  0.00  0.00    +0.000 A 
ATOM     25  N   GLY I   4     -43.789   0.399 -35.727  0.00  0.00    +0.000 N 
ATOM     26  H   GLY I   4     -43.712   1.057 -36.496  0.00  0.00    +0.000 HD
ATOM     27  CA  GLY I   4     -44.388  -0.910 -35.992  0.00  0.00    +0.000 C 
ATOM     28  C   GLY I   4     -43.724  -1.573 -37.158  0.00  0.00    +0.000 C 
ATOM     29  O   GLY I   4     -43.236  -0.855 -38.076  0.00  0.00    +0.000 OA
ATOM     30  N   TYR I   5     -43.679  -2.878 -37.196  0.00  0.00    +0.000 N 
ATOM     31  H   TYR I   5     -44.107  -3.426 -36.463  0.00  0.00    +0.000 HD
ATOM     32  CA  TYR I   5     -43.044  -3.607 -38.301  0.00  0.00    +0.000 C 
ATOM     33  C   TYR I   5     -43.851  -4.860 -38.589  0.00  0.00    +0.000 C 
ATOM     34  O   TYR I   5     -44.388  -5.478 -37.660  0.00  0.00    +0.000 OA
ATOM     35  CB  TYR I   5     -41.610  -3.958 -37.917  0.00  0.00    +0.000 C 
ATOM     36  CG  TYR I   5     -40.800  -4.692 -38.954  0.00  0.00    +0.000 A 
ATOM     37  CD1 TYR I   5     -40.288  -4.062 -40.085  0.00  0.00    +0.000 A 
ATOM     38  CD2 TYR I   5     -40.504  -6.038 -38.808  0.00  0.00    +0.000 A 
ATOM     39  CE1 TYR I   5     -39.541  -4.751 -41.024  0.00  0.00    +0.000 A 
ATOM     40  CE2 TYR I   5     -39.764  -6.734 -39.728  0.00  0.00    +0.000 A 
ATOM     41  CZ  TYR I   5     -39.270  -6.076 -40.825  0.00  0.00    +0.000 A 
ATOM     42  OH  TYR I   5     -38.585  -6.837 -41.792  0.00  0.00    +0.000 OA
ATOM     43  HH  TYR I   5     -38.475  -7.737 -41.467  0.00  0.00    +0.000 HD
ATOM     44  N   ALA I   6     -43.788  -5.320 -39.834  0.00  0.00    +0.000 N 
ATOM     45  H   ALA I   6     -43.312  -4.772 -40.543  0.00  0.00    +0.000 HD
ATOM     46  CA  ALA I   6     -44.351  -6.616 -40.219  0.00  0.00    +0.000 C 
ATOM     47  C   ALA I   6     -43.582  -7.093 -41.438  0.00  0.00    +0.000 C 
ATOM     48  O   ALA I   6     -43.138  -6.299 -42.242  0.00  0.00    +0.000 OA
ATOM     49  CB  ALA I   6     -45.845  -6.523 -40.459  0.00  0.00    +0.000 C 
ATOM     50  N   NME I   7     -43.471  -8.419 -41.527  0.00  0.00    +0.000 N 
ATOM     51  H   NME I   7     -43.908  -8.992 -40.822  0.00  0.00    +0.000 HD
ATOM     52  C   NME I   7     -42.752  -9.074 -42.622  0.00  0.00    +0.000 C 
TER 
REMARK  Name = /home/xianyang/aimnet2_score_pipelines/work/L1234-fixed-receptor-eint-20260921/L2/P31153/prepared.pdb
REMARK                            x       y       z     vdW  Elec       q    Type
REMARK                         _______ _______ _______ _____ _____    ______ ____
ATOM      1  CH3 ACE J   1     -31.339 -14.881 -45.784  0.00  0.00    +0.000 C 
ATOM      2  C   ACE J   1     -30.899 -14.657 -47.223  0.00  0.00    +0.000 C 
ATOM      3  O   ACE J   1     -29.745 -14.295 -47.475  0.00  0.00    +0.000 OA
ATOM      4  N   MET J   2     -31.872 -14.762 -48.112  0.00  0.00    +0.000 N 
ATOM      5  H   MET J   2     -32.783 -15.071 -47.788  0.00  0.00    +0.000 HD
ATOM      6  CA  MET J   2     -31.766 -14.171 -49.457  0.00  0.00    +0.000 C 
ATOM      7  C   MET J   2     -32.725 -12.990 -49.548  0.00  0.00    +0.000 C 
ATOM      8  O   MET J   2     -33.652 -12.871 -48.732  0.00  0.00    +0.000 OA
ATOM      9  CB  MET J   2     -32.035 -15.170 -50.575  0.00  0.00    +0.000 C 
ATOM     10  CG  MET J   2     -33.317 -15.790 -50.522  0.00  0.00    +0.000 C 
ATOM     11  SD  MET J   2     -33.454 -16.932 -51.935  0.00  0.00    +0.000 S 
ATOM     12  CE  MET J   2     -33.679 -15.739 -53.258  0.00  0.00    +0.000 C 
ATOM     13  N   GLN J   3     -32.411 -12.061 -50.436  0.00  0.00    +0.000 N 
ATOM     14  H   GLN J   3     -31.627 -12.201 -51.055  0.00  0.00    +0.000 HD
ATOM     15  CA  GLN J   3     -33.316 -10.906 -50.684  0.00  0.00    +0.000 C 
ATOM     16  C   GLN J   3     -34.086 -11.154 -51.998  0.00  0.00    +0.000 C 
ATOM     17  O   GLN J   3     -33.546 -11.789 -52.941  0.00  0.00    +0.000 OA
ATOM     18  CB  GLN J   3     -32.542  -9.592 -50.568  0.00  0.00    +0.000 C 
ATOM     19  CG  GLN J   3     -31.185  -9.506 -51.233  0.00  0.00    +0.000 C 
ATOM     20  CD  GLN J   3     -30.398  -8.342 -50.682  0.00  0.00    +0.000 C 
ATOM     21  OE1 GLN J   3     -30.872  -7.199 -50.644  0.00  0.00    +0.000 OA
ATOM     22  NE2 GLN J   3     -29.189  -8.625 -50.209  0.00  0.00    +0.000 N 
ATOM     23 HE21 GLN J   3     -28.787  -9.579 -50.352  0.00  0.00    +0.000 HD
ATOM     24 HE22 GLN J   3     -28.664  -7.859 -49.776  0.00  0.00    +0.000 HD
ATOM     25  N   ASP J   4     -35.347 -10.730 -52.057  0.00  0.00    +0.000 N 
ATOM     26  H   ASP J   4     -35.753 -10.326 -51.218  0.00  0.00    +0.000 HD
ATOM     27  CA  ASP J   4     -36.206 -10.812 -53.262  0.00  0.00    +0.000 C 
ATOM     28  C   ASP J   4     -37.012  -9.502 -53.328  0.00  0.00    +0.000 C 
ATOM     29  O   ASP J   4     -38.068  -9.426 -52.623  0.00  0.00    +0.000 OA
ATOM     30  CB  ASP J   4     -37.015 -12.105 -53.197  0.00  0.00    +0.000 C 
ATOM     31  CG  ASP J   4     -38.200 -12.153 -54.139  0.00  0.00    +0.000 C 
ATOM     32  OD1 ASP J   4     -38.121 -11.518 -55.243  0.00  0.00    +0.000 OA
ATOM     33  OD2 ASP J   4     -39.202 -12.792 -53.739  0.00  0.00    +0.000 OA
ATOM     34  N   ARG J   5     -36.423  -8.510 -54.004  0.00  0.00    +0.000 N 
ATOM     35  H   ARG J   5     -35.544  -8.757 -54.435  0.00  0.00    +0.000 HD
ATOM     36  CA  ARG J   5     -37.008  -7.192 -54.378  0.00  0.00    +0.000 C 
ATOM     37  C   ARG J   5     -37.489  -6.550 -53.074  0.00  0.00    +0.000 C 
ATOM     38  O   ARG J   5     -38.706  -6.230 -52.935  0.00  0.00    +0.000 OA
ATOM     39  CB  ARG J   5     -38.071  -7.335 -55.474  0.00  0.00    +0.000 C 
ATOM     40  CG  ARG J   5     -37.517  -7.212 -56.895  0.00  0.00    +0.000 C 
ATOM     41  CD  ARG J   5     -38.622  -7.137 -57.942  0.00  0.00    +0.000 C 
ATOM     42  NE  ARG J   5     -39.679  -8.070 -57.567  0.00  0.00    +0.000 N 
ATOM     43  HE  ARG J   5     -40.479  -7.689 -57.090  0.00  0.00    +0.000 HD
ATOM     44  CZ  ARG J   5     -39.646  -9.391 -57.749  0.00  0.00    +0.000 C 
ATOM     45  NH1 ARG J   5     -38.618  -9.961 -58.357  0.00  0.00    +0.000 N 
ATOM     46 HH11 ARG J   5     -38.528 -10.962 -58.306  0.00  0.00    +0.000 HD
ATOM     47 HH12 ARG J   5     -37.827  -9.400 -58.603  0.00  0.00    +0.000 HD
ATOM     48  NH2 ARG J   5     -40.651 -10.142 -57.323  0.00  0.00    +0.000 N 
ATOM     49 HH21 ARG J   5     -40.518 -11.144 -57.308  0.00  0.00    +0.000 HD
ATOM     50 HH22 ARG J   5     -41.400  -9.732 -56.795  0.00  0.00    +0.000 HD
ATOM     51  N   GLY J   6     -36.547  -6.508 -52.132  0.00  0.00    +0.000 N 
ATOM     52  H   GLY J   6     -35.642  -6.876 -52.371  0.00  0.00    +0.000 HD
ATOM     53  CA  GLY J   6     -36.711  -5.895 -50.809  0.00  0.00    +0.000 C 
ATOM     54  C   GLY J   6     -37.340  -6.826 -49.789  0.00  0.00    +0.000 C 
ATOM     55  O   GLY J   6     -37.309  -6.415 -48.640  0.00  0.00    +0.000 OA
ATOM     56  N   ALA J   7     -38.016  -7.927 -50.147  0.00  0.00    +0.000 N 
ATOM     57  H   ALA J   7     -38.067  -8.175 -51.130  0.00  0.00    +0.000 HD
ATOM     58  CA  ALA J   7     -38.495  -8.921 -49.182  0.00  0.00    +0.000 C 
ATOM     59  C   ALA J   7     -37.301  -9.814 -48.841  0.00  0.00    +0.000 C 
ATOM     60  O   ALA J   7     -36.281  -9.786 -49.518  0.00  0.00    +0.000 OA
ATOM     61  CB  ALA J   7     -39.682  -9.700 -49.698  0.00  0.00    +0.000 C 
ATOM     62  N   VAL J   8     -37.475 -10.502 -47.773  0.00  0.00    +0.000 N 
ATOM     63  H   VAL J   8     -38.373 -10.554 -47.318  0.00  0.00    +0.000 HD
ATOM     64  CA  VAL J   8     -36.366 -11.360 -47.282  0.00  0.00    +0.000 C 
ATOM     65  C   VAL J   8     -36.908 -12.759 -47.132  0.00  0.00    +0.000 C 
ATOM     66  O   VAL J   8     -38.067 -12.961 -46.783  0.00  0.00    +0.000 OA
ATOM     67  CB  VAL J   8     -35.725 -10.835 -45.988  0.00  0.00    +0.000 C 
ATOM     68  CG1 VAL J   8     -35.044  -9.534 -46.256  0.00  0.00    +0.000 C 
ATOM     69  CG2 VAL J   8     -36.704 -10.771 -44.852  0.00  0.00    +0.000 C 
ATOM     70  N   LEU J   9     -36.075 -13.729 -47.454  0.00  0.00    +0.000 N 
ATOM     71  H   LEU J   9     -35.142 -13.488 -47.779  0.00  0.00    +0.000 HD
ATOM     72  CA  LEU J   9     -36.458 -15.149 -47.455  0.00  0.00    +0.000 C 
ATOM     73  C   LEU J   9     -35.423 -15.898 -46.634  0.00  0.00    +0.000 C 
ATOM     74  O   LEU J   9     -34.243 -15.947 -47.027  0.00  0.00    +0.000 OA
ATOM     75  CB  LEU J   9     -36.487 -15.690 -48.886  0.00  0.00    +0.000 C 
ATOM     76  CG  LEU J   9     -37.463 -15.009 -49.850  0.00  0.00    +0.000 C 
ATOM     77  CD1 LEU J   9     -37.119 -15.324 -51.308  0.00  0.00    +0.000 C 
ATOM     78  CD2 LEU J   9     -38.879 -15.450 -49.551  0.00  0.00    +0.000 C 
ATOM     79  N   NME J  10     -35.802 -16.556 -45.531  0.00  0.00    +0.000 N 
ATOM     80  H   NME J  10     -36.763 -16.522 -45.230  0.00  0.00    +0.000 HD
ATOM     81  C   NME J  10     -34.821 -17.341 -44.775  0.00  0.00    +0.000 C 
TER 
REMARK  Name = /home/xianyang/aimnet2_score_pipelines/work/L1234-fixed-receptor-eint-20260921/L2/P31153/prepared.pdb
REMARK                            x       y       z     vdW  Elec       q    Type
REMARK                         _______ _______ _______ _____ _____    ______ ____
ATOM      1  CH3 ACE K   1     -38.782  -7.533 -33.610  0.00  0.00    +0.000 C 
ATOM      2  C   ACE K   1     -37.388  -8.144 -33.648  0.00  0.00    +0.000 C 
ATOM      3  O   ACE K   1     -36.938  -8.522 -34.764  0.00  0.00    +0.000 OA
ATOM      4  N   GLY K   2     -36.667  -8.254 -32.530  0.00  0.00    +0.000 N 
ATOM      5  H   GLY K   2     -37.059  -7.968 -31.646  0.00  0.00    +0.000 HD
ATOM      6  CA  GLY K   2     -35.365  -8.937 -32.579  0.00  0.00    +0.000 C 
ATOM      7  C   GLY K   2     -34.363  -8.197 -33.384  0.00  0.00    +0.000 C 
ATOM      8  O   GLY K   2     -33.397  -8.817 -33.910  0.00  0.00    +0.000 OA
ATOM      9  N   GLY K   3     -34.453  -6.894 -33.496  0.00  0.00    +0.000 N 
ATOM     10  H   GLY K   3     -35.248  -6.444 -33.073  0.00  0.00    +0.000 HD
ATOM     11  CA  GLY K   3     -33.504  -6.050 -34.184  0.00  0.00    +0.000 C 
ATOM     12  C   GLY K   3     -33.944  -5.599 -35.559  0.00  0.00    +0.000 C 
ATOM     13  O   GLY K   3     -33.411  -4.645 -36.103  0.00  0.00    +0.000 OA
ATOM     14  N   TRP K   4     -34.905  -6.326 -36.136  0.00  0.00    +0.000 N 
ATOM     15  H   TRP K   4     -35.309  -7.118 -35.657  0.00  0.00    +0.000 HD
ATOM     16  CA  TRP K   4     -35.476  -5.893 -37.418  0.00  0.00    +0.000 C 
ATOM     17  C   TRP K   4     -36.301  -4.631 -37.201  0.00  0.00    +0.000 C 
ATOM     18  O   TRP K   4     -36.764  -4.316 -36.096  0.00  0.00    +0.000 OA
ATOM     19  CB  TRP K   4     -36.360  -7.013 -37.965  0.00  0.00    +0.000 C 
ATOM     20  CG  TRP K   4     -35.622  -8.258 -38.353  0.00  0.00    +0.000 A 
ATOM     21  CD1 TRP K   4     -35.411  -9.371 -37.582  0.00  0.00    +0.000 A 
ATOM     22  CD2 TRP K   4     -35.034  -8.547 -39.635  0.00  0.00    +0.000 A 
ATOM     23  NE1 TRP K   4     -34.748 -10.340 -38.320  0.00  0.00    +0.000 N 
ATOM     24  HE1 TRP K   4     -34.482 -11.248 -37.970  0.00  0.00    +0.000 HD
ATOM     25  CE2 TRP K   4     -34.503  -9.844 -39.575  0.00  0.00    +0.000 A 
ATOM     26  CE3 TRP K   4     -34.907  -7.836 -40.822  0.00  0.00    +0.000 A 
ATOM     27  CZ2 TRP K   4     -33.903 -10.457 -40.681  0.00  0.00    +0.000 A 
ATOM     28  CZ3 TRP K   4     -34.291  -8.462 -41.903  0.00  0.00    +0.000 A 
ATOM     29  CH2 TRP K   4     -33.777  -9.733 -41.805  0.00  0.00    +0.000 A 
ATOM     30  N   GLY K   5     -36.607  -3.966 -38.290  0.00  0.00    +0.000 N 
ATOM     31  H   GLY K   5     -36.197  -4.222 -39.171  0.00  0.00    +0.000 HD
ATOM     32  CA  GLY K   5     -37.416  -2.738 -38.195  0.00  0.00    +0.000 C 
ATOM     33  C   GLY K   5     -36.671  -1.671 -37.449  0.00  0.00    +0.000 C 
ATOM     34  O   GLY K   5     -35.501  -1.416 -37.690  0.00  0.00    +0.000 OA
ATOM     35  N   ALA K   6     -37.324  -1.029 -36.470  0.00  0.00    +0.000 N 
ATOM     36  H   ALA K   6     -38.243  -1.341 -36.192  0.00  0.00    +0.000 HD
ATOM     37  CA  ALA K   6     -36.735   0.087 -35.701  0.00  0.00    +0.000 C 
ATOM     38  C   ALA K   6     -37.454   0.161 -34.382  0.00  0.00    +0.000 C 
ATOM     39  O   ALA K   6     -38.510  -0.448 -34.217  0.00  0.00    +0.000 OA
ATOM     40  CB  ALA K   6     -36.838   1.385 -36.490  0.00  0.00    +0.000 C 
ATOM     41  N   HIS K   7     -36.882   0.948 -33.480  0.00  0.00    +0.000 N 
ATOM     42  H   HIS K   7     -36.055   1.475 -33.726  0.00  0.00    +0.000 HD
ATOM     43  CA  HIS K   7     -37.438   1.106 -32.136  0.00  0.00    +0.000 C 
ATOM     44  C   HIS K   7     -37.302   2.564 -31.706  0.00  0.00    +0.000 C 
ATOM     45  O   HIS K   7     -36.270   3.194 -31.975  0.00  0.00    +0.000 OA
ATOM     46  CB  HIS K   7     -36.766   0.174 -31.129  0.00  0.00    +0.000 C 
ATOM     47  CG  HIS K   7     -37.631  -0.110 -29.966  0.00  0.00    +0.000 A 
ATOM     48  ND1 HIS K   7     -38.003   0.863 -29.049  0.00  0.00    +0.000 N 
ATOM     49  HD1 HIS K   7     -37.669   1.815 -29.028  0.00  0.00    +0.000 HD
ATOM     50  CD2 HIS K   7     -38.254  -1.264 -29.558  0.00  0.00    +0.000 A 
ATOM     51  CE1 HIS K   7     -38.799   0.328 -28.160  0.00  0.00    +0.000 A 
ATOM     52  NE2 HIS K   7     -38.983  -1.009 -28.469  0.00  0.00    +0.000 NA
ATOM     53  N   NME K   8     -38.334   3.067 -31.047  0.00  0.00    +0.000 N 
ATOM     54  H   NME K   8     -39.144   2.491 -30.872  0.00  0.00    +0.000 HD
ATOM     55  C   NME K   8     -38.309   4.457 -30.565  0.00  0.00    +0.000 C 
TER 
REMARK  Name = /home/xianyang/aimnet2_score_pipelines/work/L1234-fixed-receptor-eint-20260921/L2/P31153/prepared.pdb
REMARK                            x       y       z     vdW  Elec       q    Type
REMARK                         _______ _______ _______ _____ _____    ______ ____
ATOM      1  CH3 ACE L   1     -46.482  -4.781 -49.132  0.00  0.00    +0.000 C 
ATOM      2  C   ACE L   1     -46.075  -6.118 -48.516  0.00  0.00    +0.000 C 
ATOM      3  O   ACE L   1     -46.897  -6.764 -47.878  0.00  0.00    +0.000 OA
ATOM      4  N   ARG L   2     -44.873  -6.499 -48.802  0.00  0.00    +0.000 N 
ATOM      5  H   ARG L   2     -44.305  -5.901 -49.382  0.00  0.00    +0.000 HD
ATOM      6  CA  ARG L   2     -44.315  -7.755 -48.231  0.00  0.00    +0.000 C 
ATOM      7  C   ARG L   2     -43.705  -7.457 -46.860  0.00  0.00    +0.000 C 
ATOM      8  O   ARG L   2     -43.742  -8.341 -46.005  0.00  0.00    +0.000 OA
ATOM      9  CB  ARG L   2     -43.293  -8.350 -49.181  0.00  0.00    +0.000 C 
ATOM     10  CG  ARG L   2     -43.956  -8.779 -50.485  0.00  0.00    +0.000 C 
ATOM     11  CD  ARG L   2     -43.115  -9.613 -51.402  0.00  0.00    +0.000 C 
ATOM     12  NE  ARG L   2     -42.713 -10.858 -50.759  0.00  0.00    +0.000 N 
ATOM     13  HE  ARG L   2     -43.072 -11.074 -49.845  0.00  0.00    +0.000 HD
ATOM     14  CZ  ARG L   2     -41.874 -11.716 -51.335  0.00  0.00    +0.000 C 
ATOM     15  NH1 ARG L   2     -41.379 -11.434 -52.530  0.00  0.00    +0.000 N 
ATOM     16 HH11 ARG L   2     -41.533 -10.536 -52.934  0.00  0.00    +0.000 HD
ATOM     17 HH12 ARG L   2     -40.642 -12.022 -52.952  0.00  0.00    +0.000 HD
ATOM     18  NH2 ARG L   2     -41.523 -12.822 -50.704  0.00  0.00    +0.000 N 
ATOM     19 HH21 ARG L   2     -40.926 -13.499 -51.240  0.00  0.00    +0.000 HD
ATOM     20 HH22 ARG L   2     -41.924 -13.073 -49.808  0.00  0.00    +0.000 HD
ATOM     21  N   ARG L   3     -43.130  -6.283 -46.672  0.00  0.00    +0.000 N 
ATOM     22  H   ARG L   3     -43.149  -5.594 -47.410  0.00  0.00    +0.000 HD
ATOM     23  CA  ARG L   3     -42.651  -5.864 -45.343  0.00  0.00    +0.000 C 
ATOM     24  C   ARG L   3     -42.749  -4.365 -45.267  0.00  0.00    +0.000 C 
ATOM     25  O   ARG L   3     -42.713  -3.663 -46.267  0.00  0.00    +0.000 OA
ATOM     26  CB  ARG L   3     -41.277  -6.427 -44.994  0.00  0.00    +0.000 C 
ATOM     27  CG  ARG L   3     -40.122  -5.985 -45.813  0.00  0.00    +0.000 C 
ATOM     28  CD  ARG L   3     -38.885  -6.754 -45.348  0.00  0.00    +0.000 C 
ATOM     29  NE  ARG L   3     -37.681  -6.381 -46.008  0.00  0.00    +0.000 N 
ATOM     30  HE  ARG L   3     -37.700  -6.249 -47.011  0.00  0.00    +0.000 HD
ATOM     31  CZ  ARG L   3     -36.566  -6.080 -45.412  0.00  0.00    +0.000 C 
ATOM     32  NH1 ARG L   3     -35.509  -5.765 -46.086  0.00  0.00    +0.000 N 
ATOM     33 HH11 ARG L   3     -34.873  -5.082 -45.713  0.00  0.00    +0.000 HD
ATOM     34 HH12 ARG L   3     -35.255  -6.363 -46.865  0.00  0.00    +0.000 HD
ATOM     35  NH2 ARG L   3     -36.487  -6.214 -44.108  0.00  0.00    +0.000 N 
ATOM     36 HH21 ARG L   3     -35.629  -6.000 -43.640  0.00  0.00    +0.000 HD
ATOM     37 HH22 ARG L   3     -37.309  -6.457 -43.577  0.00  0.00    +0.000 HD
ATOM     38  N   VAL L   4     -42.855  -3.868 -44.050  0.00  0.00    +0.000 N 
ATOM     39  H   VAL L   4     -42.898  -4.501 -43.257  0.00  0.00    +0.000 HD
ATOM     40  CA  VAL L   4     -43.138  -2.435 -43.848  0.00  0.00    +0.000 C 
ATOM     41  C   VAL L   4     -42.782  -2.028 -42.440  0.00  0.00    +0.000 C 
ATOM     42  O   VAL L   4     -42.981  -2.799 -41.481  0.00  0.00    +0.000 OA
ATOM     43  CB  VAL L   4     -44.577  -2.094 -44.186  0.00  0.00    +0.000 C 
ATOM     44  CG1 VAL L   4     -45.575  -2.689 -43.230  0.00  0.00    +0.000 C 
ATOM     45  CG2 VAL L   4     -44.787  -0.579 -44.352  0.00  0.00    +0.000 C 
ATOM     46  N   LEU L   5     -42.288  -0.797 -42.352  0.00  0.00    +0.000 N 
ATOM     47  H   LEU L   5     -42.169  -0.279 -43.218  0.00  0.00    +0.000 HD
ATOM     48  CA  LEU L   5     -41.960  -0.068 -41.108  0.00  0.00    +0.000 C 
ATOM     49  C   LEU L   5     -42.866   1.150 -41.034  0.00  0.00    +0.000 C 
ATOM     50  O   LEU L   5     -43.006   1.892 -42.015  0.00  0.00    +0.000 OA
ATOM     51  CB  LEU L   5     -40.493   0.308 -41.110  0.00  0.00    +0.000 C 
ATOM     52  CG  LEU L   5     -39.975   1.029 -39.886  0.00  0.00    +0.000 C 
ATOM     53  CD1 LEU L   5     -39.974   0.136 -38.641  0.00  0.00    +0.000 C 
ATOM     54  CD2 LEU L   5     -38.595   1.564 -40.135  0.00  0.00    +0.000 C 
ATOM     55  N   VAL L   6     -43.452   1.375 -39.887  0.00  0.00    +0.000 N 
ATOM     56  H   VAL L   6     -43.306   0.691 -39.150  0.00  0.00    +0.000 HD
ATOM     57  CA  VAL L   6     -44.338   2.525 -39.574  0.00  0.00    +0.000 C 
ATOM     58  C   VAL L   6     -43.722   3.288 -38.425  0.00  0.00    +0.000 C 
ATOM     59  O   VAL L   6     -43.466   2.679 -37.369  0.00  0.00    +0.000 OA
ATOM     60  CB  VAL L   6     -45.730   2.018 -39.206  0.00  0.00    +0.000 C 
ATOM     61  CG1 VAL L   6     -46.637   3.191 -38.883  0.00  0.00    +0.000 C 
ATOM     62  CG2 VAL L   6     -46.324   1.132 -40.337  0.00  0.00    +0.000 C 
ATOM     63  N   GLN L   7     -43.536   4.581 -38.554  0.00  0.00    +0.000 N 
ATOM     64  H   GLN L   7     -43.824   5.012 -39.427  0.00  0.00    +0.000 HD
ATOM     65  CA  GLN L   7     -43.204   5.465 -37.438  0.00  0.00    +0.000 C 
ATOM     66  C   GLN L   7     -44.423   6.300 -37.098  0.00  0.00    +0.000 C 
ATOM     67  O   GLN L   7     -45.137   6.795 -37.999  0.00  0.00    +0.000 OA
ATOM     68  CB  GLN L   7     -41.993   6.358 -37.685  0.00  0.00    +0.000 C 
ATOM     69  CG  GLN L   7     -41.459   6.940 -36.378  0.00  0.00    +0.000 C 
ATOM     70  CD  GLN L   7     -40.460   8.059 -36.497  0.00  0.00    +0.000 C 
ATOM     71  OE1 GLN L   7     -40.670   9.051 -37.214  0.00  0.00    +0.000 OA
ATOM     72  NE2 GLN L   7     -39.379   7.971 -35.765  0.00  0.00    +0.000 N 
ATOM     73 HE21 GLN L   7     -38.758   8.780 -35.699  0.00  0.00    +0.000 HD
ATOM     74 HE22 GLN L   7     -39.145   7.084 -35.289  0.00  0.00    +0.000 HD
ATOM     75  N   VAL L   8     -44.596   6.539 -35.798  0.00  0.00    +0.000 N 
ATOM     76  H   VAL L   8     -43.985   6.079 -35.128  0.00  0.00    +0.000 HD
ATOM     77  CA  VAL L   8     -45.539   7.559 -35.274  0.00  0.00    +0.000 C 
ATOM     78  C   VAL L   8     -44.818   8.341 -34.182  0.00  0.00    +0.000 C 
ATOM     79  O   VAL L   8     -43.845   7.824 -33.612  0.00  0.00    +0.000 OA
ATOM     80  CB  VAL L   8     -46.847   6.957 -34.754  0.00  0.00    +0.000 C 
ATOM     81  CG1 VAL L   8     -47.675   6.408 -35.884  0.00  0.00    +0.000 C 
ATOM     82  CG2 VAL L   8     -46.608   5.847 -33.744  0.00  0.00    +0.000 C 
ATOM     83  N   NME L   9     -45.282   9.528 -33.860  0.00  0.00    +0.000 N 
ATOM     84  H   NME L   9     -46.016   9.934 -34.429  0.00  0.00    +0.000 HD
ATOM     85  C   NME L   9     -44.683  10.304 -32.745  0.00  0.00    +0.000 C 
TER 
REMARK  Name = /home/xianyang/aimnet2_score_pipelines/work/L1234-fixed-receptor-eint-20260921/L2/P31153/prepared.pdb
REMARK                            x       y       z     vdW  Elec       q    Type
REMARK                         _______ _______ _______ _____ _____    ______ ____
ATOM      1  CH3 ACE M   1     -45.966  12.562 -37.509  0.00  0.00    +0.000 C 
ATOM      2  C   ACE M   1     -46.376  11.115 -37.654  0.00  0.00    +0.000 C 
ATOM      3  O   ACE M   1     -46.508  10.417 -36.623  0.00  0.00    +0.000 OA
ATOM      4  N   ILE M   2     -46.537  10.692 -38.903  0.00  0.00    +0.000 N 
ATOM      5  H   ILE M   2     -46.368  11.338 -39.660  0.00  0.00    +0.000 HD
ATOM      6  CA  ILE M   2     -46.742   9.282 -39.285  0.00  0.00    +0.000 C 
ATOM      7  C   ILE M   2     -45.953   9.047 -40.551  0.00  0.00    +0.000 C 
ATOM      8  O   ILE M   2     -46.002   9.897 -41.465  0.00  0.00    +0.000 OA
ATOM      9  CB  ILE M   2     -48.235   8.962 -39.510  0.00  0.00    +0.000 C 
ATOM     10  CG1 ILE M   2     -49.124   9.370 -38.338  0.00  0.00    +0.000 C 
ATOM     11  CG2 ILE M   2     -48.352   7.470 -39.797  0.00  0.00    +0.000 C 
ATOM     12  CD1 ILE M   2     -50.624   9.293 -38.671  0.00  0.00    +0.000 C 
ATOM     13  N   SER M   3     -45.172   7.983 -40.603  0.00  0.00    +0.000 N 
ATOM     14  H   SER M   3     -45.145   7.359 -39.804  0.00  0.00    +0.000 HD
ATOM     15  CA  SER M   3     -44.285   7.732 -41.733  0.00  0.00    +0.000 C 
ATOM     16  C   SER M   3     -44.285   6.256 -42.078  0.00  0.00    +0.000 C 
ATOM     17  O   SER M   3     -44.425   5.405 -41.165  0.00  0.00    +0.000 OA
ATOM     18  CB  SER M   3     -42.917   8.200 -41.381  0.00  0.00    +0.000 C 
ATOM     19  OG  SER M   3     -42.970   9.517 -40.879  0.00  0.00    +0.000 OA
ATOM     20  HG  SER M   3     -42.112   9.718 -40.465  0.00  0.00    +0.000 HD
ATOM     21  N   ILE M   4     -44.012   5.954 -43.340  0.00  0.00    +0.000 N 
ATOM     22  H   ILE M   4     -43.823   6.690 -44.005  0.00  0.00    +0.000 HD
ATOM     23  CA  ILE M   4     -44.061   4.569 -43.857  0.00  0.00    +0.000 C 
ATOM     24  C   ILE M   4     -42.844   4.292 -44.700  0.00  0.00    +0.000 C 
ATOM     25  O   ILE M   4     -42.492   5.102 -45.574  0.00  0.00    +0.000 OA
ATOM     26  CB  ILE M   4     -45.294   4.347 -44.733  0.00  0.00    +0.000 C 
ATOM     27  CG1 ILE M   4     -46.612   4.723 -44.079  0.00  0.00    +0.000 C 
ATOM     28  CG2 ILE M   4     -45.311   2.926 -45.298  0.00  0.00    +0.000 C 
ATOM     29  CD1 ILE M   4     -46.973   3.892 -42.937  0.00  0.00    +0.000 C 
ATOM     30  N   PHE M   5     -42.189   3.177 -44.455  0.00  0.00    +0.000 N 
ATOM     31  H   PHE M   5     -42.519   2.594 -43.694  0.00  0.00    +0.000 HD
ATOM     32  CA  PHE M   5     -41.026   2.681 -45.245  0.00  0.00    +0.000 C 
ATOM     33  C   PHE M   5     -41.370   1.271 -45.696  0.00  0.00    +0.000 C 
ATOM     34  O   PHE M   5     -41.519   0.398 -44.837  0.00  0.00    +0.000 OA
ATOM     35  CB  PHE M   5     -39.744   2.791 -44.416  0.00  0.00    +0.000 C 
ATOM     36  CG  PHE M   5     -38.484   2.316 -45.085  0.00  0.00    +0.000 A 
ATOM     37  CD1 PHE M   5     -38.125   2.712 -46.371  0.00  0.00    +0.000 A 
ATOM     38  CD2 PHE M   5     -37.587   1.514 -44.409  0.00  0.00    +0.000 A 
ATOM     39  CE1 PHE M   5     -36.923   2.281 -46.954  0.00  0.00    +0.000 A 
ATOM     40  CE2 PHE M   5     -36.367   1.126 -44.971  0.00  0.00    +0.000 A 
ATOM     41  CZ  PHE M   5     -36.043   1.500 -46.250  0.00  0.00    +0.000 A 
ATOM     42  N   HIS M   6     -41.471   1.024 -47.002  0.00  0.00    +0.000 N 
ATOM     43  H   HIS M   6     -41.323   1.793 -47.660  0.00  0.00    +0.000 HD
ATOM     44  CA  HIS M   6     -41.918  -0.301 -47.480  0.00  0.00    +0.000 C 
ATOM     45  C   HIS M   6     -40.777  -1.096 -48.061  0.00  0.00    +0.000 C 
ATOM     46  O   HIS M   6     -41.098  -2.187 -48.608  0.00  0.00    +0.000 OA
ATOM     47  CB  HIS M   6     -43.094  -0.217 -48.412  0.00  0.00    +0.000 C 
ATOM     48  CG  HIS M   6     -42.830   0.504 -49.684  0.00  0.00    +0.000 A 
ATOM     49  ND1 HIS M   6     -41.591   0.551 -50.309  0.00  0.00    +0.000 N 
ATOM     50  HD1 HIS M   6     -40.728   0.520 -49.805  0.00  0.00    +0.000 HD
ATOM     51  CD2 HIS M   6     -43.691   1.219 -50.446  0.00  0.00    +0.000 A 
ATOM     52  CE1 HIS M   6     -41.728   1.268 -51.440  0.00  0.00    +0.000 A 
ATOM     53  NE2 HIS M   6     -42.997   1.669 -51.514  0.00  0.00    +0.000 NA
ATOM     54  N   TYR M   7     -39.546  -0.698 -47.906  0.00  0.00    +0.000 N 
ATOM     55  H   TYR M   7     -39.391   0.158 -47.389  0.00  0.00    +0.000 HD
ATOM     56  CA  TYR M   7     -38.353  -1.481 -48.310  0.00  0.00    +0.000 C 
ATOM     57  C   TYR M   7     -38.414  -1.822 -49.799  0.00  0.00    +0.000 C 
ATOM     58  O   TYR M   7     -37.680  -2.742 -50.196  0.00  0.00    +0.000 OA
ATOM     59  CB  TYR M   7     -38.266  -2.781 -47.494  0.00  0.00    +0.000 C 
ATOM     60  CG  TYR M   7     -38.012  -2.553 -46.008  0.00  0.00    +0.000 A 
ATOM     61  CD1 TYR M   7     -39.075  -2.351 -45.142  0.00  0.00    +0.000 A 
ATOM     62  CD2 TYR M   7     -36.739  -2.527 -45.504  0.00  0.00    +0.000 A 
ATOM     63  CE1 TYR M   7     -38.815  -2.150 -43.788  0.00  0.00    +0.000 A 
ATOM     64  CE2 TYR M   7     -36.481  -2.321 -44.165  0.00  0.00    +0.000 A 
ATOM     65  CZ  TYR M   7     -37.543  -2.150 -43.313  0.00  0.00    +0.000 A 
ATOM     66  OH  TYR M   7     -37.306  -1.952 -41.947  0.00  0.00    +0.000 OA
ATOM     67  HH  TYR M   7     -37.849  -1.252 -41.598  0.00  0.00    +0.000 HD
ATOM     68  N   GLY M   8     -39.176  -1.114 -50.610  0.00  0.00    +0.000 N 
ATOM     69  H   GLY M   8     -39.639  -0.301 -50.265  0.00  0.00    +0.000 HD
ATOM     70  CA  GLY M   8     -39.268  -1.449 -52.045  0.00  0.00    +0.000 C 
ATOM     71  C   GLY M   8     -40.249  -2.577 -52.304  0.00  0.00    +0.000 C 
ATOM     72  O   GLY M   8     -40.270  -3.138 -53.446  0.00  0.00    +0.000 OA
ATOM     73  N   NME M   9     -41.123  -2.932 -51.364  0.00  0.00    +0.000 N 
ATOM     74  H   NME M   9     -41.092  -2.470 -50.463  0.00  0.00    +0.000 HD
ATOM     75  C   NME M   9     -41.921  -4.186 -51.483  0.00  0.00    +0.000 C 
TER 
REMARK  Name = /home/xianyang/aimnet2_score_pipelines/work/L1234-fixed-receptor-eint-20260921/L2/P31153/prepared.pdb
REMARK                            x       y       z     vdW  Elec       q    Type
REMARK                         _______ _______ _______ _____ _____    ______ ____
ATOM      1  CH3 ACE N   1     -47.792   1.816 -54.181  0.00  0.00    +0.000 C 
ATOM      2  C   ACE N   1     -46.585   2.527 -53.587  0.00  0.00    +0.000 C 
ATOM      3  O   ACE N   1     -45.703   1.915 -52.953  0.00  0.00    +0.000 OA
ATOM      4  N   SER N   2     -46.565   3.827 -53.773  0.00  0.00    +0.000 N 
ATOM      5  H   SER N   2     -47.358   4.263 -54.211  0.00  0.00    +0.000 HD
ATOM      6  CA  SER N   2     -45.570   4.703 -53.118  0.00  0.00    +0.000 C 
ATOM      7  C   SER N   2     -45.843   4.699 -51.621  0.00  0.00    +0.000 C 
ATOM      8  O   SER N   2     -46.970   4.439 -51.200  0.00  0.00    +0.000 OA
ATOM      9  CB  SER N   2     -45.620   6.101 -53.652  0.00  0.00    +0.000 C 
ATOM     10  OG  SER N   2     -46.834   6.695 -53.333  0.00  0.00    +0.000 OA
ATOM     11  HG  SER N   2     -46.754   7.650 -53.477  0.00  0.00    +0.000 HD
ATOM     12  N   GLU N   3     -44.809   5.056 -50.880  0.00  0.00    +0.000 N 
ATOM     13  H   GLU N   3     -43.880   5.045 -51.278  0.00  0.00    +0.000 HD
ATOM     14  CA  GLU N   3     -44.953   5.259 -49.417  0.00  0.00    +0.000 C 
ATOM     15  C   GLU N   3     -45.964   6.375 -49.172  0.00  0.00    +0.000 C 
ATOM     16  O   GLU N   3     -46.789   6.277 -48.229  0.00  0.00    +0.000 OA
ATOM     17  CB  GLU N   3     -43.597   5.541 -48.801  0.00  0.00    +0.000 C 
ATOM     18  CG  GLU N   3     -42.772   4.258 -48.764  0.00  0.00    +0.000 C 
ATOM     19  CD  GLU N   3     -41.271   4.331 -48.872  0.00  0.00    +0.000 C 
ATOM     20  OE1 GLU N   3     -40.760   5.351 -49.439  0.00  0.00    +0.000 OA
ATOM     21  OE2 GLU N   3     -40.554   3.394 -48.508  0.00  0.00    +0.000 OA
ATOM     22  N   ARG N   4     -46.029   7.424 -50.016  0.00  0.00    +0.000 N 
ATOM     23  H   ARG N   4     -45.397   7.423 -50.800  0.00  0.00    +0.000 HD
ATOM     24  CA  ARG N   4     -47.059   8.474 -49.860  0.00  0.00    +0.000 C 
ATOM     25  C   ARG N   4     -48.458   7.866 -49.946  0.00  0.00    +0.000 C 
ATOM     26  O   ARG N   4     -49.353   8.203 -49.169  0.00  0.00    +0.000 OA
ATOM     27  CB  ARG N   4     -46.829   9.575 -50.892  0.00  0.00    +0.000 C 
ATOM     28  CG  ARG N   4     -47.888  10.670 -50.914  0.00  0.00    +0.000 C 
ATOM     29  CD  ARG N   4     -47.742  11.543 -52.174  0.00  0.00    +0.000 C 
ATOM     30  NE  ARG N   4     -46.804  11.399 -51.066  0.00  0.00    +0.000 N 
ATOM     31  HE  ARG N   4     -46.955  12.264 -50.590  0.00  0.00    +0.000 HD
ATOM     32  CZ  ARG N   4     -45.630  10.956 -50.738  0.00  0.00    +0.000 C 
ATOM     33  NH1 ARG N   4     -44.737  10.769 -49.724  0.00  0.00    +0.000 N 
ATOM     34 HH11 ARG N   4     -43.958  10.174 -49.931  0.00  0.00    +0.000 HD
ATOM     35 HH12 ARG N   4     -44.416  11.554 -49.159  0.00  0.00    +0.000 HD
ATOM     36  NH2 ARG N   4     -45.956  11.348 -49.525  0.00  0.00    +0.000 N 
ATOM     37 HH21 ARG N   4     -46.788  11.853 -49.320  0.00  0.00    +0.000 HD
ATOM     38 HH22 ARG N   4     -45.933  10.638 -48.810  0.00  0.00    +0.000 HD
ATOM     39  N   NME N   5     -48.661   6.997 -50.923  0.00  0.00    +0.000 N 
ATOM     40  H   NME N   5     -47.874   6.619 -51.434  0.00  0.00    +0.000 HD
ATOM     41  C   NME N   5     -49.994   6.381 -51.115  0.00  0.00    +0.000 C 
TER 
