REMARK  Name = /data/user_data/xianyang/t3-aimnet-affinity-balanced/L3/P18564/pocket.pdb
REMARK                            x       y       z     vdW  Elec       q    Type
REMARK                         _______ _______ _______ _____ _____    ______ ____
ATOM      1  N   ASP A   1       6.207 -42.767  -5.149  0.00  0.00    +0.000 N 
ATOM      2  CA  ASP A   1       6.009 -42.795  -6.592  0.00  0.00    +0.000 C 
ATOM      3  C   ASP A   1       4.850 -43.724  -6.934  0.00  0.00    +0.000 C 
ATOM      4  O   ASP A   1       4.830 -44.885  -6.517  0.00  0.00    +0.000 OA
ATOM      5  CB  ASP A   1       7.301 -43.270  -7.261  0.00  0.00    +0.000 C 
ATOM      6  CG  ASP A   1       7.224 -43.280  -8.775  0.00  0.00    +0.000 C 
ATOM      7  OD2 ASP A   1       6.113 -43.387  -9.335  0.00  0.00    +0.000 OA
ATOM      8  OD1 ASP A   1       8.296 -43.188  -9.411  0.00  0.00    +0.000 OA
ATOM      9  H   ASP A   1       6.983 -42.144  -4.924  0.00  0.00    +0.000 HD
ATOM     10  H   ASP A   1       6.419 -43.708  -4.817  0.00  0.00    +0.000 HD
ATOM     11  H   ASP A   1       5.358 -42.429  -4.696  0.00  0.00    +0.000 HD
TER 
REMARK  Name = /data/user_data/xianyang/t3-aimnet-affinity-balanced/L3/P18564/pocket.pdb
REMARK                            x       y       z     vdW  Elec       q    Type
REMARK                         _______ _______ _______ _____ _____    ______ ____
ATOM      1  N   SER B   1       3.793 -44.002 -10.321  0.00  0.00    +0.000 N 
ATOM      2  CA  SER B   1       3.824 -44.330 -11.736  0.00  0.00    +0.000 C 
ATOM      3  C   SER B   1       3.588 -45.830 -11.917  0.00  0.00    +0.000 C 
ATOM      4  O   SER B   1       3.506 -46.598 -10.954  0.00  0.00    +0.000 OA
ATOM      5  CB  SER B   1       5.147 -43.896 -12.359  0.00  0.00    +0.000 C 
ATOM      6  OG  SER B   1       6.249 -44.417 -11.638  0.00  0.00    +0.000 OA
ATOM      7  N   ALA B   2       3.489 -46.255 -13.179  0.00  0.00    +0.000 N 
ATOM      8  CA  ALA B   2       3.000 -47.600 -13.466  0.00  0.00    +0.000 C 
ATOM      9  C   ALA B   2       3.917 -48.684 -12.909  0.00  0.00    +0.000 C 
ATOM     10  O   ALA B   2       3.454 -49.794 -12.622  0.00  0.00    +0.000 OA
ATOM     11  CB  ALA B   2       2.819 -47.778 -14.974  0.00  0.00    +0.000 C 
ATOM     12  N   SER B   3       5.208 -48.394 -12.745  0.00  0.00    +0.000 N 
ATOM     13  CA  SER B   3       6.143 -49.401 -12.250  0.00  0.00    +0.000 C 
ATOM     14  C   SER B   3       6.003 -49.669 -10.756  0.00  0.00    +0.000 C 
ATOM     15  O   SER B   3       6.740 -50.512 -10.227  0.00  0.00    +0.000 OA
ATOM     16  CB  SER B   3       7.580 -48.974 -12.556  0.00  0.00    +0.000 C 
ATOM     17  OG  SER B   3       7.894 -47.751 -11.913  0.00  0.00    +0.000 OA
ATOM     18  N   MET B   4       5.087 -48.988 -10.065  0.00  0.00    +0.000 N 
ATOM     19  CA  MET B   4       4.913 -49.140  -8.626  0.00  0.00    +0.000 C 
ATOM     20  C   MET B   4       3.615 -49.863  -8.276  0.00  0.00    +0.000 C 
ATOM     21  O   MET B   4       3.170 -49.809  -7.125  0.00  0.00    +0.000 OA
ATOM     22  CB  MET B   4       4.965 -47.768  -7.952  0.00  0.00    +0.000 C 
ATOM     23  CG  MET B   4       6.230 -46.979  -8.276  0.00  0.00    +0.000 C 
ATOM     24  SD  MET B   4       7.720 -47.713  -7.573  0.00  0.00    +0.000 S 
ATOM     25  CE  MET B   4       7.438 -47.452  -5.823  0.00  0.00    +0.000 C 
ATOM     26  H   SER B   1       3.950 -43.001 -10.200  0.00  0.00    +0.000 HD
ATOM     27  H   SER B   1       4.524 -44.522  -9.835  0.00  0.00    +0.000 HD
ATOM     28  H   SER B   1       2.883 -44.252  -9.934  0.00  0.00    +0.000 HD
ATOM     29  H   SER B   1       6.225 -44.085 -10.727  0.00  0.00    +0.000 HD
ATOM     30  H   ALA B   2       3.747 -45.659 -13.919  0.00  0.00    +0.000 HD
ATOM     31  H   SER B   3       5.535 -47.491 -12.960  0.00  0.00    +0.000 HD
ATOM     32  H   SER B   3       7.298 -47.055 -12.232  0.00  0.00    +0.000 HD
ATOM     33  H   MET B   4       4.505 -48.357 -10.547  0.00  0.00    +0.000 HD
TER 
REMARK  Name = /data/user_data/xianyang/t3-aimnet-affinity-balanced/L3/P18564/pocket.pdb
REMARK                            x       y       z     vdW  Elec       q    Type
REMARK                         _______ _______ _______ _____ _____    ______ ____
ATOM      1  N   VAL C   1       3.326 -38.409  -9.239  0.00  0.00    +0.000 N 
ATOM      2  CA  VAL C   1       3.751 -39.025 -10.490  0.00  0.00    +0.000 C 
ATOM      3  C   VAL C   1       4.583 -38.054 -11.320  0.00  0.00    +0.000 C 
ATOM      4  O   VAL C   1       5.782 -38.274 -11.529  0.00  0.00    +0.000 OA
ATOM      5  CB  VAL C   1       2.543 -39.532 -11.298  0.00  0.00    +0.000 C 
ATOM      6  CG1 VAL C   1       2.977 -39.925 -12.704  0.00  0.00    +0.000 C 
ATOM      7  CG2 VAL C   1       1.894 -40.707 -10.585  0.00  0.00    +0.000 C 
ATOM      8  H   VAL C   1       4.145 -38.083  -8.725  0.00  0.00    +0.000 HD
ATOM      9  H   VAL C   1       2.822 -39.095  -8.676  0.00  0.00    +0.000 HD
ATOM     10  H   VAL C   1       2.714 -37.618  -9.440  0.00  0.00    +0.000 HD
TER 
REMARK  Name = /data/user_data/xianyang/t3-aimnet-affinity-balanced/L3/P18564/pocket.pdb
REMARK                            x       y       z     vdW  Elec       q    Type
REMARK                         _______ _______ _______ _____ _____    ______ ____
ATOM      1  N   LYS D   1       1.358 -38.206 -22.498  0.00  0.00    +0.000 N 
ATOM      2  CA  LYS D   1       0.545 -38.209 -23.705  0.00  0.00    +0.000 C 
ATOM      3  C   LYS D   1      -0.652 -37.288 -23.506  0.00  0.00    +0.000 C 
ATOM      4  O   LYS D   1      -1.273 -37.275 -22.438  0.00  0.00    +0.000 OA
ATOM      5  CB  LYS D   1       0.075 -39.624 -24.040  0.00  0.00    +0.000 C 
ATOM      6  CG  LYS D   1       1.162 -40.545 -24.573  0.00  0.00    +0.000 C 
ATOM      7  CD  LYS D   1       1.726 -40.056 -25.898  0.00  0.00    +0.000 C 
ATOM      8  CE  LYS D   1       2.672 -41.076 -26.511  0.00  0.00    +0.000 C 
ATOM      9  NZ  LYS D   1       1.985 -42.358 -26.831  0.00  0.00    +0.000 N 
ATOM     10  H   LYS D   1       2.161 -38.822 -22.627  0.00  0.00    +0.000 HD
ATOM     11  H   LYS D   1       0.799 -38.536 -21.711  0.00  0.00    +0.000 HD
ATOM     12  H   LYS D   1       1.684 -37.258 -22.310  0.00  0.00    +0.000 HD
ATOM     13  H   LYS D   1       1.246 -42.187 -27.513  0.00  0.00    +0.000 HD
ATOM     14  H   LYS D   1       1.579 -42.748 -25.980  0.00  0.00    +0.000 HD
ATOM     15  H   LYS D   1       2.660 -43.018 -27.219  0.00  0.00    +0.000 HD
TER 
REMARK  Name = /data/user_data/xianyang/t3-aimnet-affinity-balanced/L3/P18564/pocket.pdb
REMARK                            x       y       z     vdW  Elec       q    Type
REMARK                         _______ _______ _______ _____ _____    ______ ____
ATOM      1  N   GLU E   1      -5.533 -40.805 -23.765  0.00  0.00    +0.000 N 
ATOM      2  CA  GLU E   1      -4.411 -40.955 -22.846  0.00  0.00    +0.000 C 
ATOM      3  C   GLU E   1      -4.545 -40.036 -21.637  0.00  0.00    +0.000 C 
ATOM      4  O   GLU E   1      -4.070 -40.378 -20.547  0.00  0.00    +0.000 OA
ATOM      5  CB  GLU E   1      -3.099 -40.685 -23.582  0.00  0.00    +0.000 C 
ATOM      6  CG  GLU E   1      -2.763 -41.710 -24.661  0.00  0.00    +0.000 C 
ATOM      7  CD  GLU E   1      -1.942 -42.872 -24.140  0.00  0.00    +0.000 C 
ATOM      8  OE2 GLU E   1      -1.649 -42.904 -22.926  0.00  0.00    +0.000 OA
ATOM      9  OE1 GLU E   1      -1.585 -43.753 -24.949  0.00  0.00    +0.000 OA
ATOM     10  H   GLU E   1      -5.409 -41.433 -24.559  0.00  0.00    +0.000 HD
ATOM     11  H   GLU E   1      -5.574 -39.842 -24.097  0.00  0.00    +0.000 HD
ATOM     12  H   GLU E   1      -6.401 -41.035 -23.282  0.00  0.00    +0.000 HD
TER 
REMARK  Name = /data/user_data/xianyang/t3-aimnet-affinity-balanced/L3/P18564/pocket.pdb
REMARK                            x       y       z     vdW  Elec       q    Type
REMARK                         _______ _______ _______ _____ _____    ______ ____
ATOM      1  N   PRO F   1      -4.034 -42.841 -18.885  0.00  0.00    +0.000 N 
ATOM      2  CA  PRO F   1      -2.708 -42.893 -19.521  0.00  0.00    +0.000 C 
ATOM      3  C   PRO F   1      -2.210 -44.304 -19.801  0.00  0.00    +0.000 C 
ATOM      4  O   PRO F   1      -1.149 -44.476 -20.409  0.00  0.00    +0.000 OA
ATOM      5  CB  PRO F   1      -1.806 -42.172 -18.508  0.00  0.00    +0.000 C 
ATOM      6  CG  PRO F   1      -2.530 -42.257 -17.210  0.00  0.00    +0.000 C 
ATOM      7  CD  PRO F   1      -3.984 -42.209 -17.555  0.00  0.00    +0.000 C 
ATOM      8  N   CYS F   2      -2.955 -45.318 -19.363  0.00  0.00    +0.000 N 
ATOM      9  CA  CYS F   2      -2.632 -46.708 -19.661  0.00  0.00    +0.000 C 
ATOM     10  C   CYS F   2      -3.639 -47.348 -20.608  0.00  0.00    +0.000 C 
ATOM     11  O   CYS F   2      -3.612 -48.570 -20.791  0.00  0.00    +0.000 OA
ATOM     12  CB  CYS F   2      -2.550 -47.523 -18.370  0.00  0.00    +0.000 C 
ATOM     13  SG  CYS F   2      -1.325 -46.933 -17.186  0.00  0.00    +0.000 S 
ATOM     14  H   PRO F   1      -4.389 -43.792 -18.784  0.00  0.00    +0.000 HD
ATOM     15  H   PRO F   1      -4.646 -42.280 -19.478  0.00  0.00    +0.000 HD
ATOM     16  H   CYS F   2      -3.752 -45.122 -18.819  0.00  0.00    +0.000 HD
ATOM     17  H   CYS F   2      -0.084 -47.024 -17.734  0.00  0.00    +0.000 HD
TER 
REMARK  Name = /data/user_data/xianyang/t3-aimnet-affinity-balanced/L3/P18564/pocket.pdb
REMARK                            x       y       z     vdW  Elec       q    Type
REMARK                         _______ _______ _______ _____ _____    ______ ____
ATOM      1  N   SER G   1      -3.662 -47.693 -23.582  0.00  0.00    +0.000 N 
ATOM      2  CA  SER G   1      -3.013 -48.398 -24.679  0.00  0.00    +0.000 C 
ATOM      3  C   SER G   1      -2.564 -49.808 -24.311  0.00  0.00    +0.000 C 
ATOM      4  O   SER G   1      -2.189 -50.570 -25.209  0.00  0.00    +0.000 OA
ATOM      5  CB  SER G   1      -1.799 -47.597 -25.162  0.00  0.00    +0.000 C 
ATOM      6  OG  SER G   1      -0.835 -47.470 -24.129  0.00  0.00    +0.000 OA
ATOM      7  N   ILE G   2      -2.590 -50.174 -23.034  0.00  0.00    +0.000 N 
ATOM      8  CA  ILE G   2      -2.003 -51.436 -22.584  0.00  0.00    +0.000 C 
ATOM      9  C   ILE G   2      -2.904 -52.612 -22.955  0.00  0.00    +0.000 C 
ATOM     10  O   ILE G   2      -2.445 -53.525 -23.656  0.00  0.00    +0.000 OA
ATOM     11  CB  ILE G   2      -1.712 -51.396 -21.073  0.00  0.00    +0.000 C 
ATOM     12  CG1 ILE G   2      -0.745 -50.249 -20.744  0.00  0.00    +0.000 C 
ATOM     13  CG2 ILE G   2      -1.155 -52.731 -20.594  0.00  0.00    +0.000 C 
ATOM     14  CD1 ILE G   2       0.571 -50.293 -21.501  0.00  0.00    +0.000 C 
ATOM     15  H   SER G   1      -3.937 -46.761 -23.892  0.00  0.00    +0.000 HD
ATOM     16  H   SER G   1      -3.014 -47.613 -22.798  0.00  0.00    +0.000 HD
ATOM     17  H   SER G   1      -4.490 -48.211 -23.287  0.00  0.00    +0.000 HD
ATOM     18  H   SER G   1      -1.228 -47.002 -23.376  0.00  0.00    +0.000 HD
ATOM     19  H   ILE G   2      -3.015 -49.581 -22.374  0.00  0.00    +0.000 HD
TER 
REMARK  Name = /data/user_data/xianyang/t3-aimnet-affinity-balanced/L3/P18564/pocket.pdb
REMARK                            x       y       z     vdW  Elec       q    Type
REMARK                         _______ _______ _______ _____ _____    ______ ____
ATOM      1  N   SER H   1      -1.010 -44.356 -11.559  0.00  0.00    +0.000 N 
ATOM      2  CA  SER H   1      -1.099 -43.535 -12.755  0.00  0.00    +0.000 C 
ATOM      3  C   SER H   1       0.090 -43.889 -13.647  0.00  0.00    +0.000 C 
ATOM      4  O   SER H   1       0.802 -44.867 -13.404  0.00  0.00    +0.000 OA
ATOM      5  CB  SER H   1      -1.130 -42.049 -12.400  0.00  0.00    +0.000 C 
ATOM      6  OG  SER H   1      -1.336 -41.266 -13.561  0.00  0.00    +0.000 OA
ATOM      7  N   ALA H   2       0.300 -43.098 -14.695  0.00  0.00    +0.000 N 
ATOM      8  CA  ALA H   2       1.408 -43.353 -15.601  0.00  0.00    +0.000 C 
ATOM      9  C   ALA H   2       1.831 -42.057 -16.277  0.00  0.00    +0.000 C 
ATOM     10  O   ALA H   2       1.158 -41.028 -16.187  0.00  0.00    +0.000 OA
ATOM     11  CB  ALA H   2       1.039 -44.407 -16.650  0.00  0.00    +0.000 C 
ATOM     12  N   ASN H   3       2.974 -42.129 -16.948  0.00  0.00    +0.000 N 
ATOM     13  CA  ASN H   3       3.496 -41.058 -17.788  0.00  0.00    +0.000 C 
ATOM     14  C   ASN H   3       4.526 -41.696 -18.715  0.00  0.00    +0.000 C 
ATOM     15  O   ASN H   3       4.692 -42.921 -18.723  0.00  0.00    +0.000 OA
ATOM     16  CB  ASN H   3       4.058 -39.914 -16.937  0.00  0.00    +0.000 C 
ATOM     17  CG  ASN H   3       5.360 -40.271 -16.257  0.00  0.00    +0.000 C 
ATOM     18  OD1 ASN H   3       6.361 -39.577 -16.420  0.00  0.00    +0.000 OA
ATOM     19  ND2 ASN H   3       5.356 -41.352 -15.484  0.00  0.00    +0.000 N 
ATOM     20  N   ILE H   4       5.226 -40.880 -19.500  0.00  0.00    +0.000 N 
ATOM     21  CA  ILE H   4       5.992 -41.391 -20.631  0.00  0.00    +0.000 C 
ATOM     22  C   ILE H   4       7.493 -41.172 -20.514  0.00  0.00    +0.000 C 
ATOM     23  O   ILE H   4       8.245 -41.784 -21.288  0.00  0.00    +0.000 OA
ATOM     24  CB  ILE H   4       5.480 -40.802 -21.963  0.00  0.00    +0.000 C 
ATOM     25  CG1 ILE H   4       5.655 -39.284 -21.987  0.00  0.00    +0.000 C 
ATOM     26  CG2 ILE H   4       4.019 -41.163 -22.159  0.00  0.00    +0.000 C 
ATOM     27  CD1 ILE H   4       5.133 -38.636 -23.250  0.00  0.00    +0.000 C 
ATOM     28  N   ASP H   5       7.974 -40.340 -19.594  0.00  0.00    +0.000 N 
ATOM     29  CA  ASP H   5       9.407 -40.126 -19.433  0.00  0.00    +0.000 C 
ATOM     30  C   ASP H   5       9.848 -40.598 -18.054  0.00  0.00    +0.000 C 
ATOM     31  O   ASP H   5       9.137 -40.409 -17.060  0.00  0.00    +0.000 OA
ATOM     32  CB  ASP H   5       9.789 -38.654 -19.645  0.00  0.00    +0.000 C 
ATOM     33  CG  ASP H   5       9.397 -37.769 -18.480  0.00  0.00    +0.000 C 
ATOM     34  OD2 ASP H   5       8.375 -38.059 -17.825  0.00  0.00    +0.000 OA
ATOM     35  OD1 ASP H   5      10.114 -36.778 -18.222  0.00  0.00    +0.000 OA
ATOM     36  N   THR H   6      11.036 -41.204 -18.006  0.00  0.00    +0.000 N 
ATOM     37  CA  THR H   6      11.467 -41.919 -16.805  0.00  0.00    +0.000 C 
ATOM     38  C   THR H   6      11.615 -41.010 -15.593  0.00  0.00    +0.000 C 
ATOM     39  O   THR H   6      11.054 -41.339 -14.533  0.00  0.00    +0.000 OA
ATOM     40  CB  THR H   6      12.771 -42.670 -17.105  0.00  0.00    +0.000 C 
ATOM     41  OG1 THR H   6      12.490 -43.827 -17.905  0.00  0.00    +0.000 OA
ATOM     42  CG2 THR H   6      13.464 -43.097 -15.820  0.00  0.00    +0.000 C 
ATOM     43  H   SER H   1      -0.991 -45.341 -11.823  0.00  0.00    +0.000 HD
ATOM     44  H   SER H   1      -1.820 -44.179 -10.964  0.00  0.00    +0.000 HD
ATOM     45  H   SER H   1      -0.157 -44.124 -11.050  0.00  0.00    +0.000 HD
ATOM     46  H   SER H   1      -2.185 -41.505 -13.965  0.00  0.00    +0.000 HD
ATOM     47  H   ALA H   2      -0.299 -42.334 -14.859  0.00  0.00    +0.000 HD
ATOM     48  H   ASN H   3       3.502 -42.957 -16.874  0.00  0.00    +0.000 HD
ATOM     49  H   ASN H   3       4.532 -41.880 -15.381  0.00  0.00    +0.000 HD
ATOM     50  H   ASN H   3       6.177 -41.625 -15.015  0.00  0.00    +0.000 HD
ATOM     51  H   ILE H   4       5.227 -39.913 -19.314  0.00  0.00    +0.000 HD
ATOM     52  H   ASP H   5       7.347 -39.857 -19.008  0.00  0.00    +0.000 HD
ATOM     53  H   THR H   6      11.631 -41.169 -18.790  0.00  0.00    +0.000 HD
ATOM     54  H   THR H   6      11.899 -44.422 -17.417  0.00  0.00    +0.000 HD
TER 
REMARK  Name = /data/user_data/xianyang/t3-aimnet-affinity-balanced/L3/P18564/pocket.pdb
REMARK                            x       y       z     vdW  Elec       q    Type
REMARK                         _______ _______ _______ _____ _____    ______ ____
ATOM      1  N   GLU I   1      10.804 -38.592 -12.749  0.00  0.00    +0.000 N 
ATOM      2  CA  GLU I   1       9.504 -38.249 -12.190  0.00  0.00    +0.000 C 
ATOM      3  C   GLU I   1       9.593 -36.934 -11.424  0.00  0.00    +0.000 C 
ATOM      4  O   GLU I   1      10.678 -36.433 -11.117  0.00  0.00    +0.000 OA
ATOM      5  CB  GLU I   1       8.995 -39.372 -11.276  0.00  0.00    +0.000 C 
ATOM      6  CG  GLU I   1       9.061 -40.768 -11.893  0.00  0.00    +0.000 C 
ATOM      7  CD  GLU I   1       8.072 -40.969 -13.031  0.00  0.00    +0.000 C 
ATOM      8  OE1 GLU I   1       7.682 -39.975 -13.679  0.00  0.00    +0.000 OA
ATOM      9  OE2 GLU I   1       7.683 -42.130 -13.276  0.00  0.00    +0.000 OA
ATOM     10  H   GLU I   1      11.125 -37.835 -13.352  0.00  0.00    +0.000 HD
ATOM     11  H   GLU I   1      10.724 -39.451 -13.294  0.00  0.00    +0.000 HD
ATOM     12  H   GLU I   1      11.474 -38.731 -11.992  0.00  0.00    +0.000 HD
TER 
