REMARK  Name = /home/xianyang/aimnet2_score_pipelines/work/L1234-fixed-receptor-eint-20260921/L1/Q06124/prepared.pdb
REMARK                            x       y       z     vdW  Elec       q    Type
REMARK                         _______ _______ _______ _____ _____    ______ ____
ATOM      1  CH3 ACE A   1      33.641  28.247  10.806  0.00  0.00    +0.000 C 
ATOM      2  C   ACE A   1      32.281  28.083  10.145  0.00  0.00    +0.000 C 
ATOM      3  O   ACE A   1      31.322  27.697  10.821  0.00  0.00    +0.000 OA
ATOM      4  N   PRO A   2      32.134  28.395   8.854  0.00  0.00    +0.000 N 
ATOM      5  CA  PRO A   2      30.834  28.237   8.188  0.00  0.00    +0.000 C 
ATOM      6  C   PRO A   2      30.562  26.836   7.657  0.00  0.00    +0.000 C 
ATOM      7  O   PRO A   2      29.498  26.627   7.067  0.00  0.00    +0.000 OA
ATOM      8  CB  PRO A   2      30.936  29.233   7.027  0.00  0.00    +0.000 C 
ATOM      9  CG  PRO A   2      32.386  29.165   6.665  0.00  0.00    +0.000 C 
ATOM     10  CD  PRO A   2      33.114  29.071   7.983  0.00  0.00    +0.000 C 
ATOM     11  N   THR A   3      31.486  25.895   7.871  0.00  0.00    +0.000 N 
ATOM     12  H   THR A   3      32.342  26.156   8.336  0.00  0.00    +0.000 HD
ATOM     13  CA  THR A   3      31.425  24.572   7.247  0.00  0.00    +0.000 C 
ATOM     14  C   THR A   3      30.062  23.905   7.415  0.00  0.00    +0.000 C 
ATOM     15  O   THR A   3      29.495  23.379   6.450  0.00  0.00    +0.000 OA
ATOM     16  CB  THR A   3      32.524  23.681   7.835  0.00  0.00    +0.000 C 
ATOM     17  OG1 THR A   3      33.808  24.228   7.510  0.00  0.00    +0.000 OA
ATOM     18  HG1 THR A   3      34.391  23.484   7.306  0.00  0.00    +0.000 HD
ATOM     19  CG2 THR A   3      32.428  22.264   7.296  0.00  0.00    +0.000 C 
ATOM     20  N   SER A   4      29.520  23.913   8.632  0.00  0.00    +0.000 N 
ATOM     21  H   SER A   4      29.927  24.486   9.352  0.00  0.00    +0.000 HD
ATOM     22  CA  SER A   4      28.288  23.183   8.914  0.00  0.00    +0.000 C 
ATOM     23  C   SER A   4      27.033  24.031   8.744  0.00  0.00    +0.000 C 
ATOM     24  O   SER A   4      25.955  23.620   9.187  0.00  0.00    +0.000 OA
ATOM     25  CB  SER A   4      28.336  22.584  10.326  0.00  0.00    +0.000 C 
ATOM     26  OG  SER A   4      28.421  23.597  11.310  0.00  0.00    +0.000 OA
ATOM     27  HG  SER A   4      29.345  23.739  11.533  0.00  0.00    +0.000 HD
ATOM     28  N   GLU A   5      27.130  25.187   8.090  0.00  0.00    +0.000 N 
ATOM     29  H   GLU A   5      28.002  25.462   7.652  0.00  0.00    +0.000 HD
ATOM     30  CA  GLU A   5      25.944  25.976   7.818  0.00  0.00    +0.000 C 
ATOM     31  C   GLU A   5      25.211  25.419   6.612  0.00  0.00    +0.000 C 
ATOM     32  O   GLU A   5      25.821  24.969   5.642  0.00  0.00    +0.000 OA
ATOM     33  CB  GLU A   5      26.309  27.447   7.568  0.00  0.00    +0.000 C 
ATOM     34  CG  GLU A   5      27.014  28.108   8.743  0.00  0.00    +0.000 C 
ATOM     35  CD  GLU A   5      26.080  28.436   9.904  0.00  0.00    +0.000 C 
ATOM     36  OE1 GLU A   5      24.845  28.295   9.768  0.00  0.00    +0.000 OA
ATOM     37  OE2 GLU A   5      26.594  28.845  10.962  0.00  0.00    +0.000 OA
ATOM     38  N   ARG A   6      23.888  25.498   6.661  0.00  0.00    +0.000 N 
ATOM     39  H   ARG A   6      23.468  25.870   7.504  0.00  0.00    +0.000 HD
ATOM     40  CA  ARG A   6      23.071  24.899   5.619  0.00  0.00    +0.000 C 
ATOM     41  C   ARG A   6      23.248  25.610   4.276  0.00  0.00    +0.000 C 
ATOM     42  O   ARG A   6      23.064  24.989   3.224  0.00  0.00    +0.000 OA
ATOM     43  CB  ARG A   6      21.618  24.927   6.083  0.00  0.00    +0.000 C 
ATOM     44  CG  ARG A   6      20.641  24.187   5.236  0.00  0.00    +0.000 C 
ATOM     45  CD  ARG A   6      19.302  24.115   5.964  0.00  0.00    +0.000 C 
ATOM     46  NE  ARG A   6      18.329  23.343   5.203  0.00  0.00    +0.000 N 
ATOM     47  HE  ARG A   6      18.612  22.985   4.304  0.00  0.00    +0.000 HD
ATOM     48  CZ  ARG A   6      17.109  23.059   5.638  0.00  0.00    +0.000 C 
ATOM     49  NH1 ARG A   6      16.674  23.500   6.808  0.00  0.00    +0.000 N 
ATOM     50 HH11 ARG A   6      17.252  24.127   7.339  0.00  0.00    +0.000 HD
ATOM     51 HH12 ARG A   6      15.809  23.146   7.190  0.00  0.00    +0.000 HD
ATOM     52  NH2 ARG A   6      16.310  22.308   4.885  0.00  0.00    +0.000 N 
ATOM     53 HH21 ARG A   6      15.380  22.103   5.195  0.00  0.00    +0.000 HD
ATOM     54 HH22 ARG A   6      16.640  21.950   4.004  0.00  0.00    +0.000 HD
ATOM     55  N   TRP A   7      23.608  26.902   4.292  0.00  0.00    +0.000 N 
ATOM     56  H   TRP A   7      23.801  27.333   5.184  0.00  0.00    +0.000 HD
ATOM     57  CA  TRP A   7      23.754  27.709   3.087  0.00  0.00    +0.000 C 
ATOM     58  C   TRP A   7      25.178  27.743   2.529  0.00  0.00    +0.000 C 
ATOM     59  O   TRP A   7      25.395  28.361   1.476  0.00  0.00    +0.000 OA
ATOM     60  CB  TRP A   7      23.287  29.158   3.350  0.00  0.00    +0.000 C 
ATOM     61  CG  TRP A   7      23.660  29.715   4.707  0.00  0.00    +0.000 A 
ATOM     62  CD1 TRP A   7      22.840  29.824   5.797  0.00  0.00    +0.000 A 
ATOM     63  CD2 TRP A   7      24.945  30.208   5.126  0.00  0.00    +0.000 A 
ATOM     64  NE1 TRP A   7      23.523  30.380   6.856  0.00  0.00    +0.000 N 
ATOM     65  HE1 TRP A   7      23.181  30.445   7.808  0.00  0.00    +0.000 HD
ATOM     66  CE2 TRP A   7      24.816  30.620   6.477  0.00  0.00    +0.000 A 
ATOM     67  CE3 TRP A   7      26.181  30.365   4.488  0.00  0.00    +0.000 A 
ATOM     68  CZ2 TRP A   7      25.885  31.156   7.210  0.00  0.00    +0.000 A 
ATOM     69  CZ3 TRP A   7      27.247  30.920   5.218  0.00  0.00    +0.000 A 
ATOM     70  CH2 TRP A   7      27.088  31.299   6.567  0.00  0.00    +0.000 A 
ATOM     71  N   PHE A   8      26.152  27.129   3.200  0.00  0.00    +0.000 N 
ATOM     72  H   PHE A   8      25.932  26.523   3.983  0.00  0.00    +0.000 HD
ATOM     73  CA  PHE A   8      27.552  27.263   2.810  0.00  0.00    +0.000 C 
ATOM     74  C   PHE A   8      27.988  26.099   1.932  0.00  0.00    +0.000 C 
ATOM     75  O   PHE A   8      27.872  24.932   2.326  0.00  0.00    +0.000 OA
ATOM     76  CB  PHE A   8      28.469  27.355   4.026  0.00  0.00    +0.000 C 
ATOM     77  CG  PHE A   8      29.913  27.596   3.676  0.00  0.00    +0.000 A 
ATOM     78  CD1 PHE A   8      30.319  28.819   3.150  0.00  0.00    +0.000 A 
ATOM     79  CD2 PHE A   8      30.867  26.604   3.869  0.00  0.00    +0.000 A 
ATOM     80  CE1 PHE A   8      31.650  29.047   2.818  0.00  0.00    +0.000 A 
ATOM     81  CE2 PHE A   8      32.202  26.826   3.538  0.00  0.00    +0.000 A 
ATOM     82  CZ  PHE A   8      32.593  28.050   3.018  0.00  0.00    +0.000 A 
ATOM     83  N   HIS A   9      28.540  26.416   0.763  0.00  0.00    +0.000 N 
ATOM     84  H   HIS A   9      28.564  27.380   0.471  0.00  0.00    +0.000 HD
ATOM     85  CA  HIS A   9      28.942  25.377  -0.176  0.00  0.00    +0.000 C 
ATOM     86  C   HIS A   9      30.427  25.400  -0.522  0.00  0.00    +0.000 C 
ATOM     87  O   HIS A   9      30.837  24.723  -1.474  0.00  0.00    +0.000 OA
ATOM     88  CB  HIS A   9      28.081  25.467  -1.432  0.00  0.00    +0.000 C 
ATOM     89  CG  HIS A   9      26.654  25.079  -1.196  0.00  0.00    +0.000 A 
ATOM     90  ND1 HIS A   9      26.144  23.852  -1.562  0.00  0.00    +0.000 N 
ATOM     91  HD1 HIS A   9      26.680  23.085  -1.932  0.00  0.00    +0.000 HD
ATOM     92  CD2 HIS A   9      25.636  25.746  -0.604  0.00  0.00    +0.000 A 
ATOM     93  CE1 HIS A   9      24.865  23.793  -1.237  0.00  0.00    +0.000 A 
ATOM     94  NE2 HIS A   9      24.535  24.923  -0.639  0.00  0.00    +0.000 NA
ATOM     95  N   GLY A  10      31.243  26.124   0.235  0.00  0.00    +0.000 N 
ATOM     96  H   GLY A  10      30.867  26.633   1.021  0.00  0.00    +0.000 HD
ATOM     97  CA  GLY A  10      32.688  25.989   0.105  0.00  0.00    +0.000 C 
ATOM     98  C   GLY A  10      33.169  26.299  -1.298  0.00  0.00    +0.000 C 
ATOM     99  O   GLY A  10      32.773  27.296  -1.912  0.00  0.00    +0.000 OA
ATOM    100  N   NME A  11      34.031  25.430  -1.824  0.00  0.00    +0.000 N 
ATOM    101  H   NME A  11      34.264  24.600  -1.302  0.00  0.00    +0.000 HD
ATOM    102  C   NME A  11      34.560  25.592  -3.178  0.00  0.00    +0.000 C 
TER 
REMARK  Name = /home/xianyang/aimnet2_score_pipelines/work/L1234-fixed-receptor-eint-20260921/L1/Q06124/prepared.pdb
REMARK                            x       y       z     vdW  Elec       q    Type
REMARK                         _______ _______ _______ _____ _____    ______ ____
ATOM      1  CH3 ACE B   1      15.810  29.651   2.604  0.00  0.00    +0.000 C 
ATOM      2  C   ACE B   1      17.098  29.270   1.899  0.00  0.00    +0.000 C 
ATOM      3  O   ACE B   1      17.309  29.664   0.743  0.00  0.00    +0.000 OA
ATOM      4  N   PRO B   2      17.982  28.528   2.559  0.00  0.00    +0.000 N 
ATOM      5  CA  PRO B   2      19.150  28.001   1.856  0.00  0.00    +0.000 C 
ATOM      6  C   PRO B   2      18.699  27.125   0.699  0.00  0.00    +0.000 C 
ATOM      7  O   PRO B   2      17.623  26.518   0.732  0.00  0.00    +0.000 OA
ATOM      8  CB  PRO B   2      19.886  27.193   2.930  0.00  0.00    +0.000 C 
ATOM      9  CG  PRO B   2      19.366  27.719   4.241  0.00  0.00    +0.000 C 
ATOM     10  CD  PRO B   2      17.943  28.107   3.973  0.00  0.00    +0.000 C 
ATOM     11  N   LEU B   3      19.518  27.106  -0.350  0.00  0.00    +0.000 N 
ATOM     12  H   LEU B   3      20.387  27.613  -0.314  0.00  0.00    +0.000 HD
ATOM     13  CA  LEU B   3      19.233  26.284  -1.520  0.00  0.00    +0.000 C 
ATOM     14  C   LEU B   3      19.141  24.809  -1.130  0.00  0.00    +0.000 C 
ATOM     15  O   LEU B   3      20.042  24.277  -0.479  0.00  0.00    +0.000 OA
ATOM     16  CB  LEU B   3      20.335  26.473  -2.555  0.00  0.00    +0.000 C 
ATOM     17  CG  LEU B   3      20.127  25.689  -3.847  0.00  0.00    +0.000 C 
ATOM     18  CD1 LEU B   3      18.897  26.201  -4.549  0.00  0.00    +0.000 C 
ATOM     19  CD2 LEU B   3      21.347  25.755  -4.746  0.00  0.00    +0.000 C 
ATOM     20  N   ASN B   4      18.066  24.140  -1.551  0.00  0.00    +0.000 N 
ATOM     21  H   ASN B   4      17.357  24.624  -2.074  0.00  0.00    +0.000 HD
ATOM     22  CA  ASN B   4      17.934  22.702  -1.300  0.00  0.00    +0.000 C 
ATOM     23  C   ASN B   4      18.835  21.952  -2.272  0.00  0.00    +0.000 C 
ATOM     24  O   ASN B   4      18.531  21.871  -3.465  0.00  0.00    +0.000 OA
ATOM     25  CB  ASN B   4      16.481  22.259  -1.453  0.00  0.00    +0.000 C 
ATOM     26  CG  ASN B   4      16.259  20.802  -1.043  0.00  0.00    +0.000 C 
ATOM     27  OD1 ASN B   4      17.178  19.988  -1.067  0.00  0.00    +0.000 OA
ATOM     28  ND2 ASN B   4      15.032  20.478  -0.667  0.00  0.00    +0.000 N 
ATOM     29 HD21 ASN B   4      14.341  21.185  -0.539  0.00  0.00    +0.000 HD
ATOM     30 HD22 ASN B   4      15.010  19.562  -0.218  0.00  0.00    +0.000 HD
ATOM     31  N   THR B   5      19.945  21.401  -1.777  0.00  0.00    +0.000 N 
ATOM     32  H   THR B   5      20.248  21.643  -0.843  0.00  0.00    +0.000 HD
ATOM     33  CA  THR B   5      20.800  20.546  -2.595  0.00  0.00    +0.000 C 
ATOM     34  C   THR B   5      20.780  19.087  -2.158  0.00  0.00    +0.000 C 
ATOM     35  O   THR B   5      21.387  18.250  -2.830  0.00  0.00    +0.000 OA
ATOM     36  CB  THR B   5      22.249  21.059  -2.603  0.00  0.00    +0.000 C 
ATOM     37  OG1 THR B   5      22.797  21.055  -1.275  0.00  0.00    +0.000 OA
ATOM     38  HG1 THR B   5      22.956  20.146  -1.009  0.00  0.00    +0.000 HD
ATOM     39  CG2 THR B   5      22.302  22.491  -3.173  0.00  0.00    +0.000 C 
ATOM     40  N   THR B   6      20.099  18.756  -1.064  0.00  0.00    +0.000 N 
ATOM     41  H   THR B   6      19.558  19.446  -0.561  0.00  0.00    +0.000 HD
ATOM     42  CA  THR B   6      20.059  17.377  -0.582  0.00  0.00    +0.000 C 
ATOM     43  C   THR B   6      18.881  16.579  -1.136  0.00  0.00    +0.000 C 
ATOM     44  O   THR B   6      18.920  15.340  -1.118  0.00  0.00    +0.000 OA
ATOM     45  CB  THR B   6      20.011  17.376   0.945  0.00  0.00    +0.000 C 
ATOM     46  OG1 THR B   6      18.918  18.189   1.365  0.00  0.00    +0.000 OA
ATOM     47  HG1 THR B   6      18.176  17.594   1.568  0.00  0.00    +0.000 HD
ATOM     48  CG2 THR B   6      21.297  17.925   1.524  0.00  0.00    +0.000 C 
ATOM     49  N   ARG B   7      17.848  17.252  -1.643  0.00  0.00    +0.000 N 
ATOM     50  H   ARG B   7      17.835  18.262  -1.540  0.00  0.00    +0.000 HD
ATOM     51  CA  ARG B   7      16.719  16.584  -2.284  0.00  0.00    +0.000 C 
ATOM     52  C   ARG B   7      17.135  16.157  -3.684  0.00  0.00    +0.000 C 
ATOM     53  O   ARG B   7      17.422  17.005  -4.535  0.00  0.00    +0.000 OA
ATOM     54  CB  ARG B   7      15.510  17.513  -2.342  0.00  0.00    +0.000 C 
ATOM     55  CG  ARG B   7      14.331  16.951  -3.122  0.00  0.00    +0.000 C 
ATOM     56  CD  ARG B   7      13.205  17.978  -3.218  0.00  0.00    +0.000 C 
ATOM     57  NE  ARG B   7      13.627  19.156  -3.971  0.00  0.00    +0.000 N 
ATOM     58  HE  ARG B   7      14.470  19.071  -4.521  0.00  0.00    +0.000 HD
ATOM     59  CZ  ARG B   7      13.021  20.336  -3.928  0.00  0.00    +0.000 C 
ATOM     60  NH1 ARG B   7      11.945  20.535  -3.183  0.00  0.00    +0.000 N 
ATOM     61 HH11 ARG B   7      11.534  19.739  -2.738  0.00  0.00    +0.000 HD
ATOM     62 HH12 ARG B   7      11.461  21.413  -3.223  0.00  0.00    +0.000 HD
ATOM     63  NH2 ARG B   7      13.514  21.344  -4.644  0.00  0.00    +0.000 N 
ATOM     64 HH21 ARG B   7      13.060  22.238  -4.645  0.00  0.00    +0.000 HD
ATOM     65 HH22 ARG B   7      14.348  21.207  -5.192  0.00  0.00    +0.000 HD
ATOM     66  N   NME B   8      17.177  14.847  -3.927  0.00  0.00    +0.000 N 
ATOM     67  H   NME B   8      16.982  14.215  -3.155  0.00  0.00    +0.000 HD
ATOM     68  C   NME B   8      17.649  14.310  -5.195  0.00  0.00    +0.000 C 
TER 
REMARK  Name = /home/xianyang/aimnet2_score_pipelines/work/L1234-fixed-receptor-eint-20260921/L1/Q06124/prepared.pdb
REMARK                            x       y       z     vdW  Elec       q    Type
REMARK                         _______ _______ _______ _____ _____    ______ ____
ATOM      1  CH3 ACE C   1      34.226  12.850   3.621  0.00  0.00    +0.000 C 
ATOM      2  C   ACE C   1      32.953  13.699   3.562  0.00  0.00    +0.000 C 
ATOM      3  O   ACE C   1      32.546  14.282   4.571  0.00  0.00    +0.000 OA
ATOM      4  N   GLY C   2      32.336  13.771   2.376  0.00  0.00    +0.000 N 
ATOM      5  H   GLY C   2      32.762  13.343   1.569  0.00  0.00    +0.000 HD
ATOM      6  CA  GLY C   2      31.136  14.575   2.209  0.00  0.00    +0.000 C 
ATOM      7  C   GLY C   2      29.980  14.123   3.080  0.00  0.00    +0.000 C 
ATOM      8  O   GLY C   2      29.100  14.927   3.419  0.00  0.00    +0.000 OA
ATOM      9  N   PHE C   3      29.959  12.840   3.451  0.00  0.00    +0.000 N 
ATOM     10  H   PHE C   3      30.666  12.215   3.103  0.00  0.00    +0.000 HD
ATOM     11  CA  PHE C   3      28.979  12.358   4.421  0.00  0.00    +0.000 C 
ATOM     12  C   PHE C   3      29.106  13.095   5.748  0.00  0.00    +0.000 C 
ATOM     13  O   PHE C   3      28.097  13.458   6.365  0.00  0.00    +0.000 OA
ATOM     14  CB  PHE C   3      29.160  10.863   4.666  0.00  0.00    +0.000 C 
ATOM     15  CG  PHE C   3      28.392   9.975   3.731  0.00  0.00    +0.000 A 
ATOM     16  CD1 PHE C   3      27.013  10.024   3.678  0.00  0.00    +0.000 A 
ATOM     17  CD2 PHE C   3      29.058   9.050   2.942  0.00  0.00    +0.000 A 
ATOM     18  CE1 PHE C   3      26.308   9.182   2.833  0.00  0.00    +0.000 A 
ATOM     19  CE2 PHE C   3      28.363   8.208   2.098  0.00  0.00    +0.000 A 
ATOM     20  CZ  PHE C   3      26.986   8.272   2.048  0.00  0.00    +0.000 A 
ATOM     21  N   TRP C   4      30.338  13.281   6.225  0.00  0.00    +0.000 N 
ATOM     22  H   TRP C   4      31.141  13.109   5.637  0.00  0.00    +0.000 HD
ATOM     23  CA  TRP C   4      30.541  13.907   7.528  0.00  0.00    +0.000 C 
ATOM     24  C   TRP C   4      30.080  15.359   7.515  0.00  0.00    +0.000 C 
ATOM     25  O   TRP C   4      29.355  15.794   8.419  0.00  0.00    +0.000 OA
ATOM     26  CB  TRP C   4      32.011  13.796   7.937  0.00  0.00    +0.000 C 
ATOM     27  CG  TRP C   4      32.359  14.522   9.203  0.00  0.00    +0.000 A 
ATOM     28  CD1 TRP C   4      32.249  14.054  10.484  0.00  0.00    +0.000 A 
ATOM     29  CD2 TRP C   4      32.885  15.850   9.306  0.00  0.00    +0.000 A 
ATOM     30  NE1 TRP C   4      32.669  15.013  11.375  0.00  0.00    +0.000 N 
ATOM     31  HE1 TRP C   4      32.561  14.948  12.378  0.00  0.00    +0.000 HD
ATOM     32  CE2 TRP C   4      33.064  16.124  10.677  0.00  0.00    +0.000 A 
ATOM     33  CE3 TRP C   4      33.216  16.837   8.370  0.00  0.00    +0.000 A 
ATOM     34  CZ2 TRP C   4      33.556  17.345  11.134  0.00  0.00    +0.000 A 
ATOM     35  CZ3 TRP C   4      33.705  18.049   8.826  0.00  0.00    +0.000 A 
ATOM     36  CH2 TRP C   4      33.868  18.292  10.194  0.00  0.00    +0.000 A 
ATOM     37  N   GLU C   5      30.454  16.113   6.477  0.00  0.00    +0.000 N 
ATOM     38  H   GLU C   5      31.050  15.726   5.757  0.00  0.00    +0.000 HD
ATOM     39  CA  GLU C   5      30.045  17.509   6.397  0.00  0.00    +0.000 C 
ATOM     40  C   GLU C   5      28.529  17.642   6.343  0.00  0.00    +0.000 C 
ATOM     41  O   GLU C   5      27.956  18.524   6.988  0.00  0.00    +0.000 OA
ATOM     42  CB  GLU C   5      30.697  18.181   5.183  0.00  0.00    +0.000 C 
ATOM     43  CG  GLU C   5      32.208  18.342   5.317  0.00  0.00    +0.000 C 
ATOM     44  CD  GLU C   5      32.826  19.117   4.166  0.00  0.00    +0.000 C 
ATOM     45  OE1 GLU C   5      32.163  19.263   3.115  0.00  0.00    +0.000 OA
ATOM     46  OE2 GLU C   5      33.979  19.574   4.317  0.00  0.00    +0.000 OA
ATOM     47  N   GLU C   6      27.854  16.764   5.601  0.00  0.00    +0.000 N 
ATOM     48  H   GLU C   6      28.348  16.092   5.023  0.00  0.00    +0.000 HD
ATOM     49  CA  GLU C   6      26.400  16.865   5.522  0.00  0.00    +0.000 C 
ATOM     50  C   GLU C   6      25.748  16.470   6.846  0.00  0.00    +0.000 C 
ATOM     51  O   GLU C   6      24.790  17.117   7.281  0.00  0.00    +0.000 OA
ATOM     52  CB  GLU C   6      25.865  16.018   4.360  0.00  0.00    +0.000 C 
ATOM     53  CG  GLU C   6      24.352  16.048   4.223  0.00  0.00    +0.000 C 
ATOM     54  CD  GLU C   6      23.848  15.268   3.000  0.00  0.00    +0.000 C 
ATOM     55  OE1 GLU C   6      24.272  15.579   1.852  0.00  0.00    +0.000 OA
ATOM     56  OE2 GLU C   6      23.031  14.341   3.189  0.00  0.00    +0.000 OA
ATOM     57  N   PHE C   7      26.270  15.431   7.518  0.00  0.00    +0.000 N 
ATOM     58  H   PHE C   7      27.060  14.925   7.129  0.00  0.00    +0.000 HD
ATOM     59  CA  PHE C   7      25.720  15.036   8.817  0.00  0.00    +0.000 C 
ATOM     60  C   PHE C   7      25.887  16.144   9.850  0.00  0.00    +0.000 C 
ATOM     61  O   PHE C   7      24.945  16.471  10.577  0.00  0.00    +0.000 OA
ATOM     62  CB  PHE C   7      26.374  13.747   9.323  0.00  0.00    +0.000 C 
ATOM     63  CG  PHE C   7      25.810  13.262  10.645  0.00  0.00    +0.000 A 
ATOM     64  CD1 PHE C   7      24.485  12.877  10.747  0.00  0.00    +0.000 A 
ATOM     65  CD2 PHE C   7      26.604  13.192  11.781  0.00  0.00    +0.000 A 
ATOM     66  CE1 PHE C   7      23.956  12.431  11.961  0.00  0.00    +0.000 A 
ATOM     67  CE2 PHE C   7      26.076  12.742  13.006  0.00  0.00    +0.000 A 
ATOM     68  CZ  PHE C   7      24.754  12.368  13.091  0.00  0.00    +0.000 A 
ATOM     69  N   GLU C   8      27.078  16.737   9.935  0.00  0.00    +0.000 N 
ATOM     70  H   GLU C   8      27.854  16.438   9.348  0.00  0.00    +0.000 HD
ATOM     71  CA  GLU C   8      27.260  17.806  10.917  0.00  0.00    +0.000 C 
ATOM     72  C   GLU C   8      26.488  19.076  10.555  0.00  0.00    +0.000 C 
ATOM     73  O   GLU C   8      26.176  19.874  11.448  0.00  0.00    +0.000 OA
ATOM     74  CB  GLU C   8      28.751  18.101  11.110  0.00  0.00    +0.000 C 
ATOM     75  CG  GLU C   8      29.516  16.996  11.864  0.00  0.00    +0.000 C 
ATOM     76  CD  GLU C   8      28.907  16.628  13.233  0.00  0.00    +0.000 C 
ATOM     77  OE1 GLU C   8      28.389  17.522  13.939  0.00  0.00    +0.000 OA
ATOM     78  OE2 GLU C   8      28.948  15.431  13.610  0.00  0.00    +0.000 OA
ATOM     79  N   THR C   9      26.159  19.277   9.277  0.00  0.00    +0.000 N 
ATOM     80  H   THR C   9      26.519  18.659   8.553  0.00  0.00    +0.000 HD
ATOM     81  CA  THR C   9      25.233  20.350   8.922  0.00  0.00    +0.000 C 
ATOM     82  C   THR C   9      23.841  20.057   9.468  0.00  0.00    +0.000 C 
ATOM     83  O   THR C   9      23.165  20.950   9.991  0.00  0.00    +0.000 OA
ATOM     84  CB  THR C   9      25.203  20.523   7.400  0.00  0.00    +0.000 C 
ATOM     85  OG1 THR C   9      26.500  20.916   6.932  0.00  0.00    +0.000 OA
ATOM     86  HG1 THR C   9      27.067  21.050   7.685  0.00  0.00    +0.000 HD
ATOM     87  CG2 THR C   9      24.182  21.550   6.978  0.00  0.00    +0.000 C 
ATOM     88  N   LEU C  10      23.405  18.800   9.375  0.00  0.00    +0.000 N 
ATOM     89  H   LEU C  10      23.983  18.097   8.920  0.00  0.00    +0.000 HD
ATOM     90  CA  LEU C  10      22.140  18.403   9.988  0.00  0.00    +0.000 C 
ATOM     91  C   LEU C  10      22.186  18.548  11.504  0.00  0.00    +0.000 C 
ATOM     92  O   LEU C  10      21.213  19.006  12.119  0.00  0.00    +0.000 OA
ATOM     93  CB  LEU C  10      21.813  16.959   9.607  0.00  0.00    +0.000 C 
ATOM     94  CG  LEU C  10      20.587  16.334  10.257  0.00  0.00    +0.000 C 
ATOM     95  CD1 LEU C  10      19.365  17.156   9.926  0.00  0.00    +0.000 C 
ATOM     96  CD2 LEU C  10      20.423  14.882   9.766  0.00  0.00    +0.000 C 
ATOM     97  N   GLN C  11      23.289  18.132  12.128  0.00  0.00    +0.000 N 
ATOM     98  H   GLN C  11      24.023  17.672  11.600  0.00  0.00    +0.000 HD
ATOM     99  CA  GLN C  11      23.401  18.260  13.582  0.00  0.00    +0.000 C 
ATOM    100  C   GLN C  11      23.323  19.719  14.023  0.00  0.00    +0.000 C 
ATOM    101  O   GLN C  11      22.786  20.019  15.099  0.00  0.00    +0.000 OA
ATOM    102  CB  GLN C  11      24.708  17.639  14.066  0.00  0.00    +0.000 C 
ATOM    103  CG  GLN C  11      24.841  16.155  13.772  0.00  0.00    +0.000 C 
ATOM    104  CD  GLN C  11      23.836  15.333  14.533  0.00  0.00    +0.000 C 
ATOM    105  OE1 GLN C  11      22.671  15.250  14.152  0.00  0.00    +0.000 OA
ATOM    106  NE2 GLN C  11      24.282  14.713  15.619  0.00  0.00    +0.000 N 
ATOM    107 HE21 GLN C  11      25.252  14.807  15.867  0.00  0.00    +0.000 HD
ATOM    108 HE22 GLN C  11      23.610  14.181  16.136  0.00  0.00    +0.000 HD
ATOM    109  N   GLN C  12      23.859  20.642  13.218  0.00  0.00    +0.000 N 
ATOM    110  H   GLN C  12      24.384  20.362  12.395  0.00  0.00    +0.000 HD
ATOM    111  CA  GLN C  12      23.838  22.041  13.632  0.00  0.00    +0.000 C 
ATOM    112  C   GLN C  12      22.415  22.528  13.851  0.00  0.00    +0.000 C 
ATOM    113  O   GLN C  12      22.190  23.418  14.676  0.00  0.00    +0.000 OA
ATOM    114  CB  GLN C  12      24.544  22.927  12.603  0.00  0.00    +0.000 C 
ATOM    115  CG  GLN C  12      24.728  24.355  13.117  0.00  0.00    +0.000 C 
ATOM    116  CD  GLN C  12      25.183  25.328  12.050  0.00  0.00    +0.000 C 
ATOM    117  OE1 GLN C  12      24.371  26.059  11.473  0.00  0.00    +0.000 OA
ATOM    118  NE2 GLN C  12      26.486  25.352  11.785  0.00  0.00    +0.000 N 
ATOM    119 HE21 GLN C  12      27.109  24.609  12.054  0.00  0.00    +0.000 HD
ATOM    120 HE22 GLN C  12      26.765  26.107  11.179  0.00  0.00    +0.000 HD
ATOM    121  N   GLN C  13      21.442  21.943  13.152  0.00  0.00    +0.000 N 
ATOM    122  H   GLN C  13      21.668  21.161  12.549  0.00  0.00    +0.000 HD
ATOM    123  CA  GLN C  13      20.057  22.395  13.232  0.00  0.00    +0.000 C 
ATOM    124  C   GLN C  13      19.285  21.746  14.376  0.00  0.00    +0.000 C 
ATOM    125  O   GLN C  13      18.085  22.006  14.530  0.00  0.00    +0.000 OA
ATOM    126  CB  GLN C  13      19.351  22.125  11.904  0.00  0.00    +0.000 C 
ATOM    127  CG  GLN C  13      19.961  22.907  10.734  0.00  0.00    +0.000 C 
ATOM    128  CD  GLN C  13      19.906  24.400  10.971  0.00  0.00    +0.000 C 
ATOM    129  OE1 GLN C  13      18.893  24.925  11.423  0.00  0.00    +0.000 OA
ATOM    130  NE2 GLN C  13      21.006  25.091  10.690  0.00  0.00    +0.000 N 
ATOM    131 HE21 GLN C  13      21.007  26.053  10.988  0.00  0.00    +0.000 HD
ATOM    132 HE22 GLN C  13      21.878  24.625  10.486  0.00  0.00    +0.000 HD
ATOM    133  N   NME C  14      19.942  20.917  15.190  0.00  0.00    +0.000 N 
ATOM    134  H   NME C  14      20.929  20.730  15.042  0.00  0.00    +0.000 HD
ATOM    135  C   NME C  14      19.237  20.268  16.283  0.00  0.00    +0.000 C 
TER 
REMARK  Name = /home/xianyang/aimnet2_score_pipelines/work/L1234-fixed-receptor-eint-20260921/L1/Q06124/prepared.pdb
REMARK                            x       y       z     vdW  Elec       q    Type
REMARK                         _______ _______ _______ _____ _____    ______ ____
ATOM      1  CH3 ACE D   1      14.399  11.575  -1.705  0.00  0.00    +0.000 C 
ATOM      2  C   ACE D   1      15.231  12.691  -1.089  0.00  0.00    +0.000 C 
ATOM      3  O   ACE D   1      16.104  13.255  -1.755  0.00  0.00    +0.000 OA
ATOM      4  N   ASP D   2      14.976  13.003   0.183  0.00  0.00    +0.000 N 
ATOM      5  H   ASP D   2      14.252  12.515   0.684  0.00  0.00    +0.000 HD
ATOM      6  CA  ASP D   2      15.770  14.010   0.891  0.00  0.00    +0.000 C 
ATOM      7  C   ASP D   2      16.048  13.440   2.281  0.00  0.00    +0.000 C 
ATOM      8  O   ASP D   2      15.206  13.562   3.174  0.00  0.00    +0.000 OA
ATOM      9  CB  ASP D   2      15.029  15.344   0.945  0.00  0.00    +0.000 C 
ATOM     10  CG  ASP D   2      15.897  16.495   1.430  0.00  0.00    +0.000 C 
ATOM     11  OD1 ASP D   2      16.905  16.260   2.128  0.00  0.00    +0.000 OA
ATOM     12  OD2 ASP D   2      15.542  17.655   1.141  0.00  0.00    +0.000 OA
ATOM     13  N   VAL D   3      17.221  12.807   2.445  0.00  0.00    +0.000 N 
ATOM     14  H   VAL D   3      17.887  12.794   1.684  0.00  0.00    +0.000 HD
ATOM     15  CA  VAL D   3      17.521  12.096   3.694  0.00  0.00    +0.000 C 
ATOM     16  C   VAL D   3      17.530  13.017   4.906  0.00  0.00    +0.000 C 
ATOM     17  O   VAL D   3      16.825  12.729   5.884  0.00  0.00    +0.000 OA
ATOM     18  CB  VAL D   3      18.825  11.288   3.546  0.00  0.00    +0.000 C 
ATOM     19  CG1 VAL D   3      19.271  10.746   4.898  0.00  0.00    +0.000 C 
ATOM     20  CG2 VAL D   3      18.639  10.113   2.543  0.00  0.00    +0.000 C 
ATOM     21  N   PRO D   4      18.292  14.125   4.931  0.00  0.00    +0.000 N 
ATOM     22  CA  PRO D   4      18.279  14.957   6.149  0.00  0.00    +0.000 C 
ATOM     23  C   PRO D   4      16.931  15.608   6.403  0.00  0.00    +0.000 C 
ATOM     24  O   PRO D   4      16.562  15.805   7.567  0.00  0.00    +0.000 OA
ATOM     25  CB  PRO D   4      19.375  15.998   5.889  0.00  0.00    +0.000 C 
ATOM     26  CG  PRO D   4      19.528  16.044   4.388  0.00  0.00    +0.000 C 
ATOM     27  CD  PRO D   4      19.211  14.655   3.902  0.00  0.00    +0.000 C 
ATOM     28  N   LYS D   5      16.166  15.943   5.357  0.00  0.00    +0.000 N 
ATOM     29  H   LYS D   5      16.505  15.808   4.406  0.00  0.00    +0.000 HD
ATOM     30  CA  LYS D   5      14.834  16.486   5.603  0.00  0.00    +0.000 C 
ATOM     31  C   LYS D   5      13.952  15.468   6.309  0.00  0.00    +0.000 C 
ATOM     32  O   LYS D   5      13.243  15.805   7.265  0.00  0.00    +0.000 OA
ATOM     33  CB  LYS D   5      14.186  16.940   4.295  0.00  0.00    +0.000 C 
ATOM     34  CG  LYS D   5      12.789  17.508   4.479  0.00  0.00    +0.000 C 
ATOM     35  CD  LYS D   5      12.168  17.853   3.128  0.00  0.00    +0.000 C 
ATOM     36  CE  LYS D   5      10.789  18.485   3.286  0.00  0.00    +0.000 C 
ATOM     37  NZ  LYS D   5      10.174  18.837   1.969  0.00  0.00    +0.000 N 
ATOM     38  HZ1 LYS D   5      10.725  19.544   1.505  0.00  0.00    +0.000 HD
ATOM     39  HZ2 LYS D   5       9.235  19.194   2.108  0.00  0.00    +0.000 HD
ATOM     40  HZ3 LYS D   5      10.116  18.013   1.384  0.00  0.00    +0.000 HD
ATOM     41  N   THR D   6      13.988  14.211   5.851  0.00  0.00    +0.000 N 
ATOM     42  H   THR D   6      14.590  13.992   5.065  0.00  0.00    +0.000 HD
ATOM     43  CA  THR D   6      13.237  13.157   6.521  0.00  0.00    +0.000 C 
ATOM     44  C   THR D   6      13.704  12.980   7.961  0.00  0.00    +0.000 C 
ATOM     45  O   THR D   6      12.882  12.871   8.872  0.00  0.00    +0.000 OA
ATOM     46  CB  THR D   6      13.369  11.852   5.741  0.00  0.00    +0.000 C 
ATOM     47  OG1 THR D   6      12.843  12.055   4.424  0.00  0.00    +0.000 OA
ATOM     48  HG1 THR D   6      13.498  12.568   3.935  0.00  0.00    +0.000 HD
ATOM     49  CG2 THR D   6      12.586  10.725   6.416  0.00  0.00    +0.000 C 
ATOM     50  N   ILE D   7      15.017  13.002   8.190  0.00  0.00    +0.000 N 
ATOM     51  H   ILE D   7      15.663  13.085   7.412  0.00  0.00    +0.000 HD
ATOM     52  CA  ILE D   7      15.535  12.830   9.547  0.00  0.00    +0.000 C 
ATOM     53  C   ILE D   7      15.134  14.005  10.440  0.00  0.00    +0.000 C 
ATOM     54  O   ILE D   7      14.685  13.809  11.580  0.00  0.00    +0.000 OA
ATOM     55  CB  ILE D   7      17.061  12.624   9.504  0.00  0.00    +0.000 C 
ATOM     56  CG1 ILE D   7      17.371  11.326   8.735  0.00  0.00    +0.000 C 
ATOM     57  CG2 ILE D   7      17.668  12.683  10.937  0.00  0.00    +0.000 C 
ATOM     58  CD1 ILE D   7      18.842  10.929   8.708  0.00  0.00    +0.000 C 
ATOM     59  N   GLN D   8      15.273  15.240   9.942  0.00  0.00    +0.000 N 
ATOM     60  H   GLN D   8      15.665  15.380   9.021  0.00  0.00    +0.000 HD
ATOM     61  CA  GLN D   8      14.866  16.392  10.738  0.00  0.00    +0.000 C 
ATOM     62  C   GLN D   8      13.390  16.308  11.107  0.00  0.00    +0.000 C 
ATOM     63  O   GLN D   8      12.999  16.627  12.236  0.00  0.00    +0.000 OA
ATOM     64  CB  GLN D   8      15.161  17.693   9.986  0.00  0.00    +0.000 C 
ATOM     65  CG  GLN D   8      14.925  18.951  10.811  0.00  0.00    +0.000 C 
ATOM     66  CD  GLN D   8      16.004  19.176  11.873  0.00  0.00    +0.000 C 
ATOM     67  OE1 GLN D   8      16.778  18.275  12.184  0.00  0.00    +0.000 OA
ATOM     68  NE2 GLN D   8      16.066  20.394  12.418  0.00  0.00    +0.000 N 
ATOM     69 HE21 GLN D   8      16.781  20.538  13.120  0.00  0.00    +0.000 HD
ATOM     70 HE22 GLN D   8      15.329  21.052  12.264  0.00  0.00    +0.000 HD
ATOM     71  N   NME D   9      12.563  15.862  10.166  0.00  0.00    +0.000 N 
ATOM     72  H   NME D   9      12.941  15.586   9.267  0.00  0.00    +0.000 HD
ATOM     73  C   NME D   9      11.136  15.701  10.416  0.00  0.00    +0.000 C 
TER 
REMARK  Name = /home/xianyang/aimnet2_score_pipelines/work/L1234-fixed-receptor-eint-20260921/L1/Q06124/prepared.pdb
REMARK                            x       y       z     vdW  Elec       q    Type
REMARK                         _______ _______ _______ _____ _____    ______ ____
ATOM      1  CH3 ACE E   1      23.796   5.420  10.984  0.00  0.00    +0.000 C 
ATOM      2  C   ACE E   1      23.336   6.274   9.814  0.00  0.00    +0.000 C 
ATOM      3  O   ACE E   1      22.599   5.799   8.947  0.00  0.00    +0.000 OA
ATOM      4  N   TYR E   2      23.777   7.534   9.769  0.00  0.00    +0.000 N 
ATOM      5  H   TYR E   2      24.349   7.886  10.519  0.00  0.00    +0.000 HD
ATOM      6  CA  TYR E   2      23.442   8.411   8.648  0.00  0.00    +0.000 C 
ATOM      7  C   TYR E   2      23.881   7.794   7.322  0.00  0.00    +0.000 C 
ATOM      8  O   TYR E   2      23.083   7.668   6.388  0.00  0.00    +0.000 OA
ATOM      9  CB  TYR E   2      24.096   9.776   8.863  0.00  0.00    +0.000 C 
ATOM     10  CG  TYR E   2      23.571  10.862   7.956  0.00  0.00    +0.000 A 
ATOM     11  CD1 TYR E   2      22.327  11.432   8.178  0.00  0.00    +0.000 A 
ATOM     12  CD2 TYR E   2      24.329  11.330   6.887  0.00  0.00    +0.000 A 
ATOM     13  CE1 TYR E   2      21.848  12.455   7.354  0.00  0.00    +0.000 A 
ATOM     14  CE2 TYR E   2      23.861  12.335   6.061  0.00  0.00    +0.000 A 
ATOM     15  CZ  TYR E   2      22.622  12.890   6.303  0.00  0.00    +0.000 A 
ATOM     16  OH  TYR E   2      22.147  13.891   5.473  0.00  0.00    +0.000 OA
ATOM     17  HH  TYR E   2      22.583  13.965   4.587  0.00  0.00    +0.000 HD
ATOM     18  N   NME E   3      25.146   7.381   7.228  0.00  0.00    +0.000 N 
ATOM     19  H   NME E   3      25.755   7.471   8.023  0.00  0.00    +0.000 HD
ATOM     20  C   NME E   3      25.623   6.724   6.013  0.00  0.00    +0.000 C 
TER 
