REMARK  Name = /data/user_data/xianyang/t3-aimnet-affinity-balanced/L4/Q70CQ3/pocket.pdb
REMARK                            x       y       z     vdW  Elec       q    Type
REMARK                         _______ _______ _______ _____ _____    ______ ____
ATOM      1  N   ASN A   1       5.478 -15.665  -4.156  0.00  0.00    +0.000 N 
ATOM      2  CA  ASN A   1       5.071 -16.608  -3.119  0.00  0.00    +0.000 C 
ATOM      3  C   ASN A   1       5.295 -18.014  -3.662  0.00  0.00    +0.000 C 
ATOM      4  O   ASN A   1       4.496 -18.510  -4.462  0.00  0.00    +0.000 OA
ATOM      5  CB  ASN A   1       3.621 -16.388  -2.720  0.00  0.00    +0.000 C 
ATOM      6  CG  ASN A   1       3.238 -17.147  -1.472  0.00  0.00    +0.000 C 
ATOM      7  OD1 ASN A   1       4.018 -17.951  -0.950  0.00  0.00    +0.000 OA
ATOM      8  ND2 ASN A   1       2.025 -16.896  -0.983  0.00  0.00    +0.000 N 
ATOM      9  H   ASN A   1       6.453 -15.833  -4.405  0.00  0.00    +0.000 HD
ATOM     10  H   ASN A   1       5.376 -14.712  -3.808  0.00  0.00    +0.000 HD
ATOM     11  H   ASN A   1       4.890 -15.791  -4.980  0.00  0.00    +0.000 HD
ATOM     12  H   ASN A   1       1.437 -16.247  -1.433  0.00  0.00    +0.000 HD
ATOM     13  H   ASN A   1       1.716 -17.360  -0.171  0.00  0.00    +0.000 HD
TER 
REMARK  Name = /data/user_data/xianyang/t3-aimnet-affinity-balanced/L4/Q70CQ3/pocket.pdb
REMARK                            x       y       z     vdW  Elec       q    Type
REMARK                         _______ _______ _______ _____ _____    ______ ____
ATOM      1  N   GLY B   1       4.961 -20.716  -2.086  0.00  0.00    +0.000 N 
ATOM      2  CA  GLY B   1       3.894 -21.555  -1.592  0.00  0.00    +0.000 C 
ATOM      3  C   GLY B   1       3.478 -21.240  -0.173  0.00  0.00    +0.000 C 
ATOM      4  O   GLY B   1       2.290 -21.327   0.147  0.00  0.00    +0.000 OA
ATOM      5  N   ALA B   2       4.421 -20.873   0.699  0.00  0.00    +0.000 N 
ATOM      6  CA  ALA B   2       4.002 -20.661   2.080  0.00  0.00    +0.000 C 
ATOM      7  C   ALA B   2       4.534 -19.357   2.677  0.00  0.00    +0.000 C 
ATOM      8  O   ALA B   2       4.639 -19.247   3.906  0.00  0.00    +0.000 OA
ATOM      9  CB  ALA B   2       4.410 -21.867   2.954  0.00  0.00    +0.000 C 
ATOM     10  N   THR B   3       4.841 -18.361   1.853  0.00  0.00    +0.000 N 
ATOM     11  CA  THR B   3       5.296 -17.078   2.354  0.00  0.00    +0.000 C 
ATOM     12  C   THR B   3       4.316 -15.947   1.989  0.00  0.00    +0.000 C 
ATOM     13  O   THR B   3       4.508 -14.783   2.361  0.00  0.00    +0.000 OA
ATOM     14  CB  THR B   3       6.706 -16.755   1.810  0.00  0.00    +0.000 C 
ATOM     15  OG1 THR B   3       6.644 -16.548   0.396  0.00  0.00    +0.000 OA
ATOM     16  CG2 THR B   3       7.659 -17.903   2.097  0.00  0.00    +0.000 C 
ATOM     17  N   CYS B   4       2.945 -16.165   2.343  0.00  0.00    +0.000 N 
ATOM     18  CA  CYS B   4       1.867 -15.200   2.188  0.00  0.00    +0.000 C 
ATOM     19  C   CYS B   4       1.755 -14.323   3.395  0.00  0.00    +0.000 C 
ATOM     20  O   CYS B   4       1.565 -13.092   3.226  0.00  0.00    +0.000 OA
ATOM     21  CB  CYS B   4       0.547 -15.802   1.767  0.00  0.00    +0.000 C 
ATOM     22  SG  CYS B   4      -0.134 -17.105   2.858  0.00  0.00    +0.000 S 
ATOM     23  N   PHE B   5       2.107 -15.052   4.574  0.00  0.00    +0.000 N 
ATOM     24  CA  PHE B   5       2.008 -14.419   5.883  0.00  0.00    +0.000 C 
ATOM     25  C   PHE B   5       3.020 -13.291   5.956  0.00  0.00    +0.000 C 
ATOM     26  O   PHE B   5       2.847 -12.325   6.687  0.00  0.00    +0.000 OA
ATOM     27  CB  PHE B   5       2.261 -15.432   6.993  0.00  0.00    +0.000 C 
ATOM     28  CG  PHE B   5       3.687 -15.850   7.080  0.00  0.00    +0.000 A 
ATOM     29  CD2 PHE B   5       4.529 -15.311   8.032  0.00  0.00    +0.000 A 
ATOM     30  CD1 PHE B   5       4.201 -16.753   6.167  0.00  0.00    +0.000 A 
ATOM     31  CE2 PHE B   5       5.861 -15.686   8.082  0.00  0.00    +0.000 A 
ATOM     32  CE1 PHE B   5       5.518 -17.126   6.209  0.00  0.00    +0.000 A 
ATOM     33  CZ  PHE B   5       6.352 -16.598   7.167  0.00  0.00    +0.000 A 
ATOM     34  H   GLY B   1       5.188 -20.984  -3.044  0.00  0.00    +0.000 HD
ATOM     35  H   GLY B   1       5.785 -20.831  -1.496  0.00  0.00    +0.000 HD
ATOM     36  H   GLY B   1       4.663 -19.741  -2.067  0.00  0.00    +0.000 HD
ATOM     37  H   ALA B   2       5.358 -20.751   0.422  0.00  0.00    +0.000 HD
ATOM     38  H   THR B   3       4.758 -18.497   0.881  0.00  0.00    +0.000 HD
ATOM     39  H   THR B   3       4.310 -14.709   3.308  0.00  0.00    +0.000 HD
ATOM     40  H   THR B   3       6.322 -17.355  -0.035  0.00  0.00    +0.000 HD
ATOM     41  H   CYS B   4       2.957 -16.398   3.336  0.00  0.00    +0.000 HD
ATOM     42  H   CYS B   4       2.682 -16.842   1.627  0.00  0.00    +0.000 HD
ATOM     43  H   CYS B   4       0.707 -18.174   2.867  0.00  0.00    +0.000 HD
ATOM     44  H   PHE B   5       2.417 -15.984   4.501  0.00  0.00    +0.000 HD
TER 
REMARK  Name = /data/user_data/xianyang/t3-aimnet-affinity-balanced/L4/Q70CQ3/pocket.pdb
REMARK                            x       y       z     vdW  Elec       q    Type
REMARK                         _______ _______ _______ _____ _____    ______ ____
ATOM      1  N   ASP C   1       1.500 -17.144  10.651  0.00  0.00    +0.000 N 
ATOM      2  CA  ASP C   1       0.737 -16.053  11.273  0.00  0.00    +0.000 C 
ATOM      3  C   ASP C   1       1.385 -14.677  11.081  0.00  0.00    +0.000 C 
ATOM      4  O   ASP C   1       2.484 -14.435  11.573  0.00  0.00    +0.000 OA
ATOM      5  CB  ASP C   1       0.552 -16.301  12.773  0.00  0.00    +0.000 C 
ATOM      6  CG  ASP C   1      -0.387 -15.288  13.411  0.00  0.00    +0.000 C 
ATOM      7  OD1 ASP C   1      -1.078 -14.567  12.657  0.00  0.00    +0.000 OA
ATOM      8  OD2 ASP C   1      -0.435 -15.203  14.657  0.00  0.00    +0.000 OA
ATOM      9  N   ALA C   2       0.693 -13.759  10.396  0.00  0.00    +0.000 N 
ATOM     10  CA  ALA C   2       1.306 -12.464  10.118  0.00  0.00    +0.000 C 
ATOM     11  C   ALA C   2       1.412 -11.584  11.354  0.00  0.00    +0.000 C 
ATOM     12  O   ALA C   2       2.191 -10.626  11.348  0.00  0.00    +0.000 OA
ATOM     13  CB  ALA C   2       0.536 -11.721   9.029  0.00  0.00    +0.000 C 
ATOM     14  H   ASP C   1       1.610 -16.957   9.654  0.00  0.00    +0.000 HD
ATOM     15  H   ASP C   1       1.000 -18.024  10.779  0.00  0.00    +0.000 HD
ATOM     16  H   ASP C   1       2.419 -17.208  11.088  0.00  0.00    +0.000 HD
ATOM     17  H   ALA C   2      -0.220 -13.955  10.083  0.00  0.00    +0.000 HD
TER 
REMARK  Name = /data/user_data/xianyang/t3-aimnet-affinity-balanced/L4/Q70CQ3/pocket.pdb
REMARK                            x       y       z     vdW  Elec       q    Type
REMARK                         _______ _______ _______ _____ _____    ______ ____
ATOM      1  N   HIS D   1      -4.983  -5.711  16.233  0.00  0.00    +0.000 N 
ATOM      2  CA  HIS D   1      -5.083  -7.124  15.890  0.00  0.00    +0.000 C 
ATOM      3  C   HIS D   1      -6.401  -7.669  16.420  0.00  0.00    +0.000 C 
ATOM      4  O   HIS D   1      -6.719  -7.501  17.603  0.00  0.00    +0.000 OA
ATOM      5  CB  HIS D   1      -3.898  -7.908  16.462  0.00  0.00    +0.000 C 
ATOM      6  CG  HIS D   1      -4.025  -9.397  16.349  0.00  0.00    +0.000 A 
ATOM      7  ND1 HIS D   1      -4.347 -10.197  17.425  0.00  0.00    +0.000 N 
ATOM      8  CD2 HIS D   1      -3.838 -10.236  15.301  0.00  0.00    +0.000 A 
ATOM      9  CE1 HIS D   1      -4.369 -11.461  17.042  0.00  0.00    +0.000 A 
ATOM     10  NE2 HIS D   1      -4.066 -11.513  15.757  0.00  0.00    +0.000 NA
ATOM     11  N   LEU D   2      -7.176  -8.293  15.542  0.00  0.00    +0.000 N 
ATOM     12  CA  LEU D   2      -8.425  -8.933  15.930  0.00  0.00    +0.000 C 
ATOM     13  C   LEU D   2      -8.154 -10.418  16.127  0.00  0.00    +0.000 C 
ATOM     14  O   LEU D   2      -7.698 -11.102  15.202  0.00  0.00    +0.000 OA
ATOM     15  CB  LEU D   2      -9.508  -8.696  14.879  0.00  0.00    +0.000 C 
ATOM     16  CG  LEU D   2      -9.835  -7.216  14.641  0.00  0.00    +0.000 C 
ATOM     17  CD1 LEU D   2     -10.869  -7.035  13.534  0.00  0.00    +0.000 C 
ATOM     18  CD2 LEU D   2     -10.293  -6.539  15.925  0.00  0.00    +0.000 C 
ATOM     19  H   HIS D   1      -5.781  -5.209  15.843  0.00  0.00    +0.000 HD
ATOM     20  H   HIS D   1      -4.119  -5.328  15.849  0.00  0.00    +0.000 HD
ATOM     21  H   HIS D   1      -4.979  -5.607  17.248  0.00  0.00    +0.000 HD
ATOM     22  H   HIS D   1      -4.532  -9.876  18.337  0.00  0.00    +0.000 HD
ATOM     23  H   LEU D   2      -6.898  -8.324  14.598  0.00  0.00    +0.000 HD
TER 
REMARK  Name = /data/user_data/xianyang/t3-aimnet-affinity-balanced/L4/Q70CQ3/pocket.pdb
REMARK                            x       y       z     vdW  Elec       q    Type
REMARK                         _______ _______ _______ _____ _____    ______ ____
ATOM      1  N   ARG E   1      -8.792 -13.752  15.837  0.00  0.00    +0.000 N 
ATOM      2  CA  ARG E   1      -9.661 -14.660  15.107  0.00  0.00    +0.000 C 
ATOM      3  C   ARG E   1      -9.311 -16.118  15.341  0.00  0.00    +0.000 C 
ATOM      4  O   ARG E   1     -10.010 -16.999  14.831  0.00  0.00    +0.000 OA
ATOM      5  CB  ARG E   1      -9.614 -14.361  13.606  0.00  0.00    +0.000 C 
ATOM      6  CG  ARG E   1     -10.068 -12.956  13.240  0.00  0.00    +0.000 C 
ATOM      7  CD  ARG E   1     -10.279 -12.811  11.745  0.00  0.00    +0.000 C 
ATOM      8  NE  ARG E   1     -10.789 -11.483  11.429  0.00  0.00    +0.000 N 
ATOM      9  CZ  ARG E   1     -12.070 -11.134  11.493  0.00  0.00    +0.000 C 
ATOM     10  NH2 ARG E   1     -12.990 -12.024  11.841  0.00  0.00    +0.000 N 
ATOM     11  NH1 ARG E   1     -12.432  -9.893  11.200  0.00  0.00    +0.000 N 
ATOM     12  N   LEU E   2      -8.256 -16.397  16.098  0.00  0.00    +0.000 N 
ATOM     13  CA  LEU E   2      -7.821 -17.760  16.368  0.00  0.00    +0.000 C 
ATOM     14  C   LEU E   2      -8.315 -18.198  17.743  0.00  0.00    +0.000 C 
ATOM     15  O   LEU E   2      -7.942 -17.605  18.758  0.00  0.00    +0.000 OA
ATOM     16  CB  LEU E   2      -6.300 -17.863  16.284  0.00  0.00    +0.000 C 
ATOM     17  CG  LEU E   2      -5.708 -19.172  16.802  0.00  0.00    +0.000 C 
ATOM     18  CD1 LEU E   2      -6.245 -20.374  16.023  0.00  0.00    +0.000 C 
ATOM     19  CD2 LEU E   2      -4.196 -19.109  16.741  0.00  0.00    +0.000 C 
ATOM     20  H   ARG E   1      -9.069 -12.789  15.646  0.00  0.00    +0.000 HD
ATOM     21  H   ARG E   1      -7.826 -13.894  15.540  0.00  0.00    +0.000 HD
ATOM     22  H   ARG E   1      -8.871 -13.936  16.837  0.00  0.00    +0.000 HD
ATOM     23  H   ARG E   1     -10.140 -10.797  11.149  0.00  0.00    +0.000 HD
ATOM     24  H   ARG E   1     -13.937 -11.760  11.887  0.00  0.00    +0.000 HD
ATOM     25  H   ARG E   1     -12.725 -12.948  12.053  0.00  0.00    +0.000 HD
ATOM     26  H   ARG E   1     -11.752  -9.230  10.941  0.00  0.00    +0.000 HD
ATOM     27  H   ARG E   1     -13.381  -9.634  11.241  0.00  0.00    +0.000 HD
ATOM     28  H   LEU E   2      -7.748 -15.652  16.493  0.00  0.00    +0.000 HD
TER 
REMARK  Name = /data/user_data/xianyang/t3-aimnet-affinity-balanced/L4/Q70CQ3/pocket.pdb
REMARK                            x       y       z     vdW  Elec       q    Type
REMARK                         _______ _______ _______ _____ _____    ______ ____
ATOM      1  N   LYS F   1     -11.393 -20.776  13.642  0.00  0.00    +0.000 N 
ATOM      2  CA  LYS F   1     -11.335 -19.431  13.083  0.00  0.00    +0.000 C 
ATOM      3  C   LYS F   1     -12.697 -18.752  13.162  0.00  0.00    +0.000 C 
ATOM      4  O   LYS F   1     -13.715 -19.328  12.764  0.00  0.00    +0.000 OA
ATOM      5  CB  LYS F   1     -10.875 -19.446  11.632  0.00  0.00    +0.000 C 
ATOM      6  CG  LYS F   1     -10.786 -18.042  11.033  0.00  0.00    +0.000 C 
ATOM      7  CD  LYS F   1     -10.324 -18.052   9.588  0.00  0.00    +0.000 C 
ATOM      8  CE  LYS F   1     -10.371 -16.656   9.005  0.00  0.00    +0.000 C 
ATOM      9  NZ  LYS F   1      -9.934 -16.630   7.582  0.00  0.00    +0.000 N 
ATOM     10  N   ARG F   2     -12.712 -17.521  13.669  0.00  0.00    +0.000 N 
ATOM     11  CA  ARG F   2     -13.914 -16.694  13.677  0.00  0.00    +0.000 C 
ATOM     12  C   ARG F   2     -13.896 -15.836  12.418  0.00  0.00    +0.000 C 
ATOM     13  O   ARG F   2     -12.987 -15.023  12.225  0.00  0.00    +0.000 OA
ATOM     14  CB  ARG F   2     -13.992 -15.837  14.939  0.00  0.00    +0.000 C 
ATOM     15  CG  ARG F   2     -14.439 -16.603  16.186  0.00  0.00    +0.000 C 
ATOM     16  CD  ARG F   2     -14.977 -15.661  17.251  0.00  0.00    +0.000 C 
ATOM     17  NE  ARG F   2     -16.150 -14.918  16.794  0.00  0.00    +0.000 N 
ATOM     18  CZ  ARG F   2     -16.797 -14.016  17.529  0.00  0.00    +0.000 C 
ATOM     19  NH2 ARG F   2     -16.375 -13.731  18.755  0.00  0.00    +0.000 N 
ATOM     20  NH1 ARG F   2     -17.860 -13.392  17.035  0.00  0.00    +0.000 N 
ATOM     21  H   LYS F   1     -10.472 -21.210  13.579  0.00  0.00    +0.000 HD
ATOM     22  H   LYS F   1     -12.068 -21.333  13.119  0.00  0.00    +0.000 HD
ATOM     23  H   LYS F   1     -11.679 -20.726  14.620  0.00  0.00    +0.000 HD
ATOM     24  H   LYS F   1     -10.559 -17.211   7.024  0.00  0.00    +0.000 HD
ATOM     25  H   LYS F   1      -8.982 -16.990   7.512  0.00  0.00    +0.000 HD
ATOM     26  H   LYS F   1      -9.961 -15.671   7.235  0.00  0.00    +0.000 HD
ATOM     27  H   ARG F   2     -11.882 -17.156  14.052  0.00  0.00    +0.000 HD
ATOM     28  H   ARG F   2     -16.483 -15.096  15.885  0.00  0.00    +0.000 HD
ATOM     29  H   ARG F   2     -15.587 -14.192  19.124  0.00  0.00    +0.000 HD
ATOM     30  H   ARG F   2     -16.850 -13.059  19.295  0.00  0.00    +0.000 HD
ATOM     31  H   ARG F   2     -18.175 -13.601  16.126  0.00  0.00    +0.000 HD
ATOM     32  H   ARG F   2     -18.333 -12.720  17.578  0.00  0.00    +0.000 HD
TER 
REMARK  Name = /data/user_data/xianyang/t3-aimnet-affinity-balanced/L4/Q70CQ3/pocket.pdb
REMARK                            x       y       z     vdW  Elec       q    Type
REMARK                         _______ _______ _______ _____ _____    ______ ____
ATOM      1  N   HIS G   1      -7.241 -12.331   6.209  0.00  0.00    +0.000 N 
ATOM      2  CA  HIS G   1      -6.991 -13.758   6.093  0.00  0.00    +0.000 C 
ATOM      3  C   HIS G   1      -8.252 -14.450   5.586  0.00  0.00    +0.000 C 
ATOM      4  O   HIS G   1      -9.321 -14.333   6.198  0.00  0.00    +0.000 OA
ATOM      5  CB  HIS G   1      -6.556 -14.358   7.427  0.00  0.00    +0.000 C 
ATOM      6  CG  HIS G   1      -6.227 -15.816   7.336  0.00  0.00    +0.000 A 
ATOM      7  ND1 HIS G   1      -7.155 -16.807   7.568  0.00  0.00    +0.000 N 
ATOM      8  CD2 HIS G   1      -5.078 -16.450   7.003  0.00  0.00    +0.000 A 
ATOM      9  CE1 HIS G   1      -6.590 -17.988   7.400  0.00  0.00    +0.000 A 
ATOM     10  NE2 HIS G   1      -5.328 -17.800   7.058  0.00  0.00    +0.000 NA
ATOM     11  N   HIS G   2      -8.122 -15.178   4.481  0.00  0.00    +0.000 N 
ATOM     12  CA  HIS G   2      -9.211 -15.953   3.901  0.00  0.00    +0.000 C 
ATOM     13  C   HIS G   2      -9.027 -17.434   4.212  0.00  0.00    +0.000 C 
ATOM     14  O   HIS G   2      -7.978 -17.870   4.691  0.00  0.00    +0.000 OA
ATOM     15  CB  HIS G   2      -9.286 -15.724   2.387  0.00  0.00    +0.000 C 
ATOM     16  CG  HIS G   2      -9.734 -14.348   2.014  0.00  0.00    +0.000 C 
ATOM     17  ND1 HIS G   2      -9.252 -13.676   0.911  0.00  0.00    +0.000 NA
ATOM     18  CD2 HIS G   2     -10.622 -13.515   2.606  0.00  0.00    +0.000 C 
ATOM     19  CE1 HIS G   2      -9.829 -12.490   0.837  0.00  0.00    +0.000 C 
ATOM     20  NE2 HIS G   2     -10.665 -12.367   1.854  0.00  0.00    +0.000 NA
ATOM     21  H   HIS G   1      -7.529 -11.962   5.303  0.00  0.00    +0.000 HD
ATOM     22  H   HIS G   1      -6.389 -11.860   6.513  0.00  0.00    +0.000 HD
ATOM     23  H   HIS G   1      -7.981 -12.170   6.893  0.00  0.00    +0.000 HD
ATOM     24  H   HIS G   1      -8.095 -16.658   7.820  0.00  0.00    +0.000 HD
ATOM     25  H   HIS G   2      -7.246 -15.194   4.032  0.00  0.00    +0.000 HD
TER 
REMARK  Name = /data/user_data/xianyang/t3-aimnet-affinity-balanced/L4/Q70CQ3/pocket.pdb
REMARK                            x       y       z     vdW  Elec       q    Type
REMARK                         _______ _______ _______ _____ _____    ______ ____
ATOM      1  N   ASP H   1      -9.544 -21.239   5.900  0.00  0.00    +0.000 N 
ATOM      2  CA  ASP H   1      -9.482 -21.753   7.257  0.00  0.00    +0.000 C 
ATOM      3  C   ASP H   1      -8.047 -21.669   7.775  0.00  0.00    +0.000 C 
ATOM      4  O   ASP H   1      -7.153 -21.118   7.124  0.00  0.00    +0.000 OA
ATOM      5  CB  ASP H   1     -10.021 -23.182   7.305  0.00  0.00    +0.000 C 
ATOM      6  CG  ASP H   1      -9.176 -24.150   6.495  0.00  0.00    +0.000 C 
ATOM      7  OD1 ASP H   1      -8.516 -23.688   5.536  0.00  0.00    +0.000 OA
ATOM      8  OD2 ASP H   1      -9.183 -25.367   6.809  0.00  0.00    +0.000 OA
ATOM      9  N   MET H   2      -7.819 -22.224   8.963  0.00  0.00    +0.000 N 
ATOM     10  CA  MET H   2      -6.497 -22.189   9.567  0.00  0.00    +0.000 C 
ATOM     11  C   MET H   2      -5.510 -23.124   8.879  0.00  0.00    +0.000 C 
ATOM     12  O   MET H   2      -4.298 -22.951   9.044  0.00  0.00    +0.000 OA
ATOM     13  CB  MET H   2      -6.600 -22.536  11.055  0.00  0.00    +0.000 C 
ATOM     14  CG  MET H   2      -7.383 -21.512  11.899  0.00  0.00    +0.000 C 
ATOM     15  SD  MET H   2      -6.517 -19.936  11.986  0.00  0.00    +0.000 S 
ATOM     16  CE  MET H   2      -7.631 -18.866  12.896  0.00  0.00    +0.000 C 
ATOM     17  N   HIS H   3      -5.987 -24.093   8.098  0.00  0.00    +0.000 N 
ATOM     18  CA  HIS H   3      -5.108 -25.098   7.508  0.00  0.00    +0.000 C 
ATOM     19  C   HIS H   3      -4.748 -24.797   6.056  0.00  0.00    +0.000 C 
ATOM     20  O   HIS H   3      -3.575 -24.886   5.680  0.00  0.00    +0.000 OA
ATOM     21  CB  HIS H   3      -5.752 -26.487   7.616  0.00  0.00    +0.000 C 
ATOM     22  CG  HIS H   3      -6.176 -26.851   9.007  0.00  0.00    +0.000 A 
ATOM     23  ND1 HIS H   3      -5.286 -27.268   9.973  0.00  0.00    +0.000 N 
ATOM     24  CD2 HIS H   3      -7.397 -26.854   9.595  0.00  0.00    +0.000 A 
ATOM     25  CE1 HIS H   3      -5.940 -27.517  11.094  0.00  0.00    +0.000 A 
ATOM     26  NE2 HIS H   3      -7.223 -27.274  10.892  0.00  0.00    +0.000 NA
ATOM     27  N   SER H   4      -5.727 -24.446   5.229  0.00  0.00    +0.000 N 
ATOM     28  CA  SER H   4      -5.506 -24.191   3.810  0.00  0.00    +0.000 C 
ATOM     29  C   SER H   4      -5.953 -22.782   3.431  0.00  0.00    +0.000 C 
ATOM     30  O   SER H   4      -6.520 -22.553   2.359  0.00  0.00    +0.000 OA
ATOM     31  CB  SER H   4      -6.221 -25.235   2.956  0.00  0.00    +0.000 C 
ATOM     32  OG  SER H   4      -7.630 -25.149   3.099  0.00  0.00    +0.000 OA
ATOM     33  N   GLY H   5      -5.696 -21.821   4.311  0.00  0.00    +0.000 N 
ATOM     34  CA  GLY H   5      -6.064 -20.439   4.087  0.00  0.00    +0.000 C 
ATOM     35  C   GLY H   5      -5.091 -19.702   3.190  0.00  0.00    +0.000 C 
ATOM     36  O   GLY H   5      -4.323 -20.298   2.431  0.00  0.00    +0.000 OA
ATOM     37  N   HIS H   6      -5.141 -18.376   3.279  0.00  0.00    +0.000 N 
ATOM     38  CA  HIS H   6      -4.285 -17.487   2.504  0.00  0.00    +0.000 C 
ATOM     39  C   HIS H   6      -4.364 -16.086   3.095  0.00  0.00    +0.000 C 
ATOM     40  O   HIS H   6      -5.428 -15.652   3.550  0.00  0.00    +0.000 OA
ATOM     41  CB  HIS H   6      -4.688 -17.462   1.025  0.00  0.00    +0.000 C 
ATOM     42  CG  HIS H   6      -3.738 -16.696   0.159  0.00  0.00    +0.000 A 
ATOM     43  ND1 HIS H   6      -2.427 -17.077  -0.026  0.00  0.00    +0.000 N 
ATOM     44  CD2 HIS H   6      -3.906 -15.565  -0.569  0.00  0.00    +0.000 A 
ATOM     45  CE1 HIS H   6      -1.831 -16.221  -0.837  0.00  0.00    +0.000 A 
ATOM     46  NE2 HIS H   6      -2.705 -15.289  -1.174  0.00  0.00    +0.000 NA
ATOM     47  N   PHE H   7      -3.230 -15.386   3.080  0.00  0.00    +0.000 N 
ATOM     48  CA  PHE H   7      -3.154 -14.015   3.570  0.00  0.00    +0.000 C 
ATOM     49  C   PHE H   7      -3.162 -13.052   2.386  0.00  0.00    +0.000 C 
ATOM     50  O   PHE H   7      -2.471 -13.286   1.389  0.00  0.00    +0.000 OA
ATOM     51  CB  PHE H   7      -1.898 -13.812   4.428  0.00  0.00    +0.000 C 
ATOM     52  CG  PHE H   7      -2.103 -14.141   5.881  0.00  0.00    +0.000 A 
ATOM     53  CD2 PHE H   7      -2.884 -13.327   6.679  0.00  0.00    +0.000 A 
ATOM     54  CD1 PHE H   7      -1.538 -15.277   6.440  0.00  0.00    +0.000 A 
ATOM     55  CE2 PHE H   7      -3.089 -13.620   8.013  0.00  0.00    +0.000 A 
ATOM     56  CE1 PHE H   7      -1.746 -15.583   7.779  0.00  0.00    +0.000 A 
ATOM     57  CZ  PHE H   7      -2.523 -14.746   8.565  0.00  0.00    +0.000 A 
ATOM     58  H   ASP H   1     -10.503 -21.297   5.558  0.00  0.00    +0.000 HD
ATOM     59  H   ASP H   1      -8.935 -21.793   5.298  0.00  0.00    +0.000 HD
ATOM     60  H   ASP H   1      -9.238 -20.266   5.891  0.00  0.00    +0.000 HD
ATOM     61  H   MET H   2      -8.558 -22.666   9.441  0.00  0.00    +0.000 HD
ATOM     62  H   HIS H   3      -6.954 -24.132   7.915  0.00  0.00    +0.000 HD
ATOM     63  H   HIS H   3      -4.314 -27.365   9.848  0.00  0.00    +0.000 HD
ATOM     64  H   SER H   4      -6.639 -24.354   5.589  0.00  0.00    +0.000 HD
ATOM     65  H   SER H   4      -7.932 -24.274   2.808  0.00  0.00    +0.000 HD
ATOM     66  H   GLY H   5      -5.237 -22.058   5.149  0.00  0.00    +0.000 HD
ATOM     67  H   HIS H   6      -5.790 -17.974   3.901  0.00  0.00    +0.000 HD
ATOM     68  H   HIS H   6      -2.001 -17.865   0.383  0.00  0.00    +0.000 HD
ATOM     69  H   PHE H   7      -2.415 -15.810   2.726  0.00  0.00    +0.000 HD
TER 
REMARK  Name = /data/user_data/xianyang/t3-aimnet-affinity-balanced/L4/Q70CQ3/pocket.pdb
REMARK                            x       y       z     vdW  Elec       q    Type
REMARK                         _______ _______ _______ _____ _____    ______ ____
ATOM      1  N   ASP I   1       0.004 -11.424  -3.037  0.00  0.00    +0.000 N 
ATOM      2  CA  ASP I   1       1.370 -11.746  -3.440  0.00  0.00    +0.000 C 
ATOM      3  C   ASP I   1       1.786 -10.992  -4.696  0.00  0.00    +0.000 C 
ATOM      4  O   ASP I   1       1.976  -9.774  -4.656  0.00  0.00    +0.000 OA
ATOM      5  CB  ASP I   1       1.529 -13.247  -3.657  0.00  0.00    +0.000 C 
ATOM      6  CG  ASP I   1       1.238 -14.036  -2.409  0.00  0.00    +0.000 C 
ATOM      7  OD2 ASP I   1       1.591 -13.549  -1.316  0.00  0.00    +0.000 OA
ATOM      8  OD1 ASP I   1       0.650 -15.132  -2.514  0.00  0.00    +0.000 OA
ATOM      9  H   ASP I   1      -0.081 -10.417  -2.897  0.00  0.00    +0.000 HD
ATOM     10  H   ASP I   1      -0.217 -11.908  -2.167  0.00  0.00    +0.000 HD
ATOM     11  H   ASP I   1      -0.645 -11.722  -3.766  0.00  0.00    +0.000 HD
TER 
REMARK  Name = /data/user_data/xianyang/t3-aimnet-affinity-balanced/L4/Q70CQ3/pocket.pdb
REMARK                            x       y       z     vdW  Elec       q    Type
REMARK                         _______ _______ _______ _____ _____    ______ ____
ATOM      1  N   TYR J   1      -8.026  -8.777   9.693  0.00  0.00    +0.000 N 
ATOM      2  CA  TYR J   1      -7.195  -9.441  10.690  0.00  0.00    +0.000 C 
ATOM      3  C   TYR J   1      -6.220  -8.491  11.368  0.00  0.00    +0.000 C 
ATOM      4  O   TYR J   1      -6.128  -8.480  12.600  0.00  0.00    +0.000 OA
ATOM      5  CB  TYR J   1      -6.422 -10.609  10.059  0.00  0.00    +0.000 C 
ATOM      6  CG  TYR J   1      -5.527 -11.345  11.038  0.00  0.00    +0.000 A 
ATOM      7  CD2 TYR J   1      -6.066 -12.006  12.142  0.00  0.00    +0.000 A 
ATOM      8  CD1 TYR J   1      -4.149 -11.380  10.863  0.00  0.00    +0.000 A 
ATOM      9  CE2 TYR J   1      -5.258 -12.681  13.041  0.00  0.00    +0.000 A 
ATOM     10  CE1 TYR J   1      -3.328 -12.055  11.761  0.00  0.00    +0.000 A 
ATOM     11  CZ  TYR J   1      -3.889 -12.702  12.848  0.00  0.00    +0.000 A 
ATOM     12  OH  TYR J   1      -3.081 -13.366  13.743  0.00  0.00    +0.000 OA
ATOM     13  H   TYR J   1      -8.659  -9.456   9.271  0.00  0.00    +0.000 HD
ATOM     14  H   TYR J   1      -7.431  -8.371   8.970  0.00  0.00    +0.000 HD
ATOM     15  H   TYR J   1      -8.569  -8.039  10.140  0.00  0.00    +0.000 HD
ATOM     16  H   TYR J   1      -2.153 -13.382  13.614  0.00  0.00    +0.000 HD
TER 
