REMARK  Name = /data/user_data/xianyang/t3-aimnet-affinity-balanced/L3/Q16665/pocket.pdb
REMARK                            x       y       z     vdW  Elec       q    Type
REMARK                         _______ _______ _______ _____ _____    ______ ____
ATOM      1  N   LEU A   1       9.141  11.110  27.273  0.00  0.00    +0.000 N 
ATOM      2  CA  LEU A   1       7.822  10.710  26.817  0.00  0.00    +0.000 C 
ATOM      3  C   LEU A   1       7.863   9.878  25.546  0.00  0.00    +0.000 C 
ATOM      4  O   LEU A   1       6.848   9.281  25.180  0.00  0.00    +0.000 OA
ATOM      5  CB  LEU A   1       6.944  11.943  26.605  0.00  0.00    +0.000 C 
ATOM      6  CG  LEU A   1       6.716  12.822  27.834  0.00  0.00    +0.000 C 
ATOM      7  CD1 LEU A   1       5.839  14.014  27.478  0.00  0.00    +0.000 C 
ATOM      8  CD2 LEU A   1       6.106  12.012  28.961  0.00  0.00    +0.000 C 
ATOM      9  N   ASP A   2       8.993   9.822  24.869  0.00  0.00    +0.000 N 
ATOM     10  CA  ASP A   2       9.137   9.049  23.644  0.00  0.00    +0.000 C 
ATOM     11  C   ASP A   2       9.987   7.803  23.832  0.00  0.00    +0.000 C 
ATOM     12  O   ASP A   2      10.236   7.082  22.859  0.00  0.00    +0.000 OA
ATOM     13  CB  ASP A   2       9.751   9.914  22.537  0.00  0.00    +0.000 C 
ATOM     14  CG  ASP A   2       8.905  11.124  22.210  0.00  0.00    +0.000 C 
ATOM     15  OD2 ASP A   2       7.671  11.056  22.370  0.00  0.00    +0.000 OA
ATOM     16  OD1 ASP A   2       9.475  12.150  21.781  0.00  0.00    +0.000 OA
ATOM     17  H   LEU A   1       9.719  10.281  27.411  0.00  0.00    +0.000 HD
ATOM     18  H   LEU A   1       9.057  11.617  28.154  0.00  0.00    +0.000 HD
ATOM     19  H   LEU A   1       9.574  11.713  26.574  0.00  0.00    +0.000 HD
ATOM     20  H   ASP A   2       9.771  10.323  25.206  0.00  0.00    +0.000 HD
TER 
REMARK  Name = /data/user_data/xianyang/t3-aimnet-affinity-balanced/L3/Q16665/pocket.pdb
REMARK                            x       y       z     vdW  Elec       q    Type
REMARK                         _______ _______ _______ _____ _____    ______ ____
ATOM      1  N   GLY B   1       8.448   6.894  14.027  0.00  0.00    +0.000 N 
ATOM      2  CA  GLY B   1       7.606   8.064  14.014  0.00  0.00    +0.000 C 
ATOM      3  C   GLY B   1       8.383   9.267  14.498  0.00  0.00    +0.000 C 
ATOM      4  O   GLY B   1       9.562   9.179  14.844  0.00  0.00    +0.000 OA
ATOM      5  N   GLN B   2       7.724  10.405  14.501  0.00  0.00    +0.000 N 
ATOM      6  CA  GLN B   2       8.381  11.608  14.969  0.00  0.00    +0.000 C 
ATOM      7  C   GLN B   2       8.582  11.535  16.477  0.00  0.00    +0.000 C 
ATOM      8  O   GLN B   2       7.672  11.177  17.227  0.00  0.00    +0.000 OA
ATOM      9  CB  GLN B   2       7.566  12.838  14.590  0.00  0.00    +0.000 C 
ATOM     10  CG  GLN B   2       7.303  12.958  13.102  0.00  0.00    +0.000 C 
ATOM     11  CD  GLN B   2       6.454  14.160  12.764  0.00  0.00    +0.000 C 
ATOM     12  OE1 GLN B   2       6.367  15.108  13.539  0.00  0.00    +0.000 OA
ATOM     13  NE2 GLN B   2       5.826  14.133  11.598  0.00  0.00    +0.000 N 
ATOM     14  N   TYR B   3       9.784  11.860  16.911  0.00  0.00    +0.000 N 
ATOM     15  CA  TYR B   3      10.124  11.828  18.319  0.00  0.00    +0.000 C 
ATOM     16  C   TYR B   3      10.952  13.052  18.659  0.00  0.00    +0.000 C 
ATOM     17  O   TYR B   3      11.465  13.753  17.785  0.00  0.00    +0.000 OA
ATOM     18  CB  TYR B   3      10.879  10.535  18.681  0.00  0.00    +0.000 C 
ATOM     19  CG  TYR B   3      12.204  10.376  17.978  0.00  0.00    +0.000 A 
ATOM     20  CD1 TYR B   3      12.270   9.791  16.718  0.00  0.00    +0.000 A 
ATOM     21  CD2 TYR B   3      13.388  10.792  18.576  0.00  0.00    +0.000 A 
ATOM     22  CE1 TYR B   3      13.482   9.636  16.068  0.00  0.00    +0.000 A 
ATOM     23  CE2 TYR B   3      14.607  10.636  17.932  0.00  0.00    +0.000 A 
ATOM     24  CZ  TYR B   3      14.648  10.062  16.677  0.00  0.00    +0.000 A 
ATOM     25  OH  TYR B   3      15.850   9.909  16.036  0.00  0.00    +0.000 OA
ATOM     26  N   ARG B   4      11.059  13.311  19.933  0.00  0.00    +0.000 N 
ATOM     27  CA  ARG B   4      11.792  14.461  20.438  0.00  0.00    +0.000 C 
ATOM     28  C   ARG B   4      13.199  14.042  20.817  0.00  0.00    +0.000 C 
ATOM     29  O   ARG B   4      13.387  13.149  21.650  0.00  0.00    +0.000 OA
ATOM     30  CB  ARG B   4      11.058  15.071  21.629  0.00  0.00    +0.000 C 
ATOM     31  CG  ARG B   4       9.826  15.864  21.231  0.00  0.00    +0.000 C 
ATOM     32  CD  ARG B   4       8.872  16.069  22.383  0.00  0.00    +0.000 C 
ATOM     33  NE  ARG B   4       8.135  14.851  22.707  0.00  0.00    +0.000 N 
ATOM     34  CZ  ARG B   4       7.054  14.817  23.477  0.00  0.00    +0.000 C 
ATOM     35  NH2 ARG B   4       6.584  15.935  24.022  0.00  0.00    +0.000 N 
ATOM     36  NH1 ARG B   4       6.445  13.665  23.697  0.00  0.00    +0.000 N 
ATOM     37  H   GLY B   1       7.915   6.088  13.699  0.00  0.00    +0.000 HD
ATOM     38  H   GLY B   1       8.775   6.721  14.977  0.00  0.00    +0.000 HD
ATOM     39  H   GLY B   1       9.249   7.045  13.414  0.00  0.00    +0.000 HD
ATOM     40  H   GLN B   2       6.791  10.439  14.188  0.00  0.00    +0.000 HD
ATOM     41  H   GLN B   2       5.922  13.353  11.005  0.00  0.00    +0.000 HD
ATOM     42  H   GLN B   2       5.263  14.893  11.324  0.00  0.00    +0.000 HD
ATOM     43  H   TYR B   3      10.470  12.132  16.260  0.00  0.00    +0.000 HD
ATOM     44  H   TYR B   3      15.881   9.520  15.184  0.00  0.00    +0.000 HD
ATOM     45  H   ARG B   4      10.627  12.705  20.577  0.00  0.00    +0.000 HD
ATOM     46  H   ARG B   4       8.460  14.001  22.331  0.00  0.00    +0.000 HD
ATOM     47  H   ARG B   4       7.039  16.792  23.857  0.00  0.00    +0.000 HD
ATOM     48  H   ARG B   4       5.781  15.906  24.591  0.00  0.00    +0.000 HD
ATOM     49  H   ARG B   4       6.795  12.838  23.293  0.00  0.00    +0.000 HD
ATOM     50  H   ARG B   4       5.642  13.633  24.265  0.00  0.00    +0.000 HD
TER 
REMARK  Name = /data/user_data/xianyang/t3-aimnet-affinity-balanced/L3/Q16665/pocket.pdb
REMARK                            x       y       z     vdW  Elec       q    Type
REMARK                         _______ _______ _______ _____ _____    ______ ____
ATOM      1  N   TRP C   1      12.364  17.913  16.776  0.00  0.00    +0.000 N 
ATOM      2  CA  TRP C   1      11.582  16.813  16.241  0.00  0.00    +0.000 C 
ATOM      3  C   TRP C   1      12.389  16.103  15.171  0.00  0.00    +0.000 C 
ATOM      4  O   TRP C   1      12.861  16.724  14.213  0.00  0.00    +0.000 OA
ATOM      5  CB  TRP C   1      10.253  17.311  15.678  0.00  0.00    +0.000 C 
ATOM      6  CG  TRP C   1       9.264  17.695  16.736  0.00  0.00    +0.000 C 
ATOM      7  CD1 TRP C   1       8.963  18.945  17.171  0.00  0.00    +0.000 C 
ATOM      8  CD2 TRP C   1       8.443  16.797  17.488  0.00  0.00    +0.000 C 
ATOM      9  NE1 TRP C   1       8.004  18.890  18.149  0.00  0.00    +0.000 NA
ATOM     10  CE2 TRP C   1       7.662  17.584  18.360  0.00  0.00    +0.000 C 
ATOM     11  CE3 TRP C   1       8.279  15.404  17.500  0.00  0.00    +0.000 C 
ATOM     12  CZ2 TRP C   1       6.737  17.022  19.235  0.00  0.00    +0.000 C 
ATOM     13  CZ3 TRP C   1       7.359  14.851  18.371  0.00  0.00    +0.000 C 
ATOM     14  CH2 TRP C   1       6.596  15.657  19.224  0.00  0.00    +0.000 C 
ATOM     15  H   TRP C   1      13.245  17.556  17.145  0.00  0.00    +0.000 HD
ATOM     16  H   TRP C   1      11.842  18.369  17.524  0.00  0.00    +0.000 HD
ATOM     17  H   TRP C   1      12.554  18.587  16.034  0.00  0.00    +0.000 HD
TER 
REMARK  Name = /data/user_data/xianyang/t3-aimnet-affinity-balanced/L3/Q16665/pocket.pdb
REMARK                            x       y       z     vdW  Elec       q    Type
REMARK                         _______ _______ _______ _____ _____    ______ ____
ATOM      1  N   VAL D   1      12.986  17.868  11.562  0.00  0.00    +0.000 N 
ATOM      2  CA  VAL D   1      11.838  18.523  10.962  0.00  0.00    +0.000 C 
ATOM      3  C   VAL D   1      11.508  19.844  11.636  0.00  0.00    +0.000 C 
ATOM      4  O   VAL D   1      10.553  20.513  11.223  0.00  0.00    +0.000 OA
ATOM      5  CB  VAL D   1      10.599  17.599  10.983  0.00  0.00    +0.000 C 
ATOM      6  CG1 VAL D   1      10.887  16.340  10.176  0.00  0.00    +0.000 C 
ATOM      7  CG2 VAL D   1      10.216  17.250  12.414  0.00  0.00    +0.000 C 
ATOM      8  N   SER D   2      12.259  20.251  12.636  0.00  0.00    +0.000 N 
ATOM      9  CA  SER D   2      11.979  21.493  13.332  0.00  0.00    +0.000 C 
ATOM     10  CB  SER D   2      13.262  22.047  13.918  0.00  0.00    +0.000 C 
ATOM     11  OG  SER D   2      14.288  21.368  13.976  0.00  0.00    +0.000 OA
ATOM     12  C   SER D   2      10.946  21.291  14.450  0.00  0.00    +0.000 C 
ATOM     13  O   SER D   2      11.480  20.510  15.499  0.00  0.00    +0.000 OA
ATOM     14  H   VAL D   1      13.168  16.989  11.077  0.00  0.00    +0.000 HD
ATOM     15  H   VAL D   1      12.795  17.680  12.546  0.00  0.00    +0.000 HD
ATOM     16  H   VAL D   1      13.803  18.474  11.484  0.00  0.00    +0.000 HD
ATOM     17  H   SER D   2      13.026  19.702  12.918  0.00  0.00    +0.000 HD
ATOM     18  H   SER D   2      11.729  19.637  15.158  0.00  0.00    +0.000 HD
TER 
REMARK  Name = /data/user_data/xianyang/t3-aimnet-affinity-balanced/L3/Q16665/pocket.pdb
REMARK                            x       y       z     vdW  Elec       q    Type
REMARK                         _______ _______ _______ _____ _____    ______ ____
ATOM      1  N   ILE E   1      12.923  23.495  19.976  0.00  0.00    +0.000 N 
ATOM      2  CA  ILE E   1      11.676  23.880  20.605  0.00  0.00    +0.000 C 
ATOM      3  C   ILE E   1      11.885  23.934  22.110  0.00  0.00    +0.000 C 
ATOM      4  O   ILE E   1      12.471  23.024  22.702  0.00  0.00    +0.000 OA
ATOM      5  CB  ILE E   1      10.545  22.900  20.244  0.00  0.00    +0.000 C 
ATOM      6  CG1 ILE E   1      10.375  22.837  18.724  0.00  0.00    +0.000 C 
ATOM      7  CG2 ILE E   1       9.247  23.307  20.908  0.00  0.00    +0.000 C 
ATOM      8  CD1 ILE E   1       9.339  21.834  18.281  0.00  0.00    +0.000 C 
ATOM      9  H   ILE E   1      12.796  23.455  18.965  0.00  0.00    +0.000 HD
ATOM     10  H   ILE E   1      13.208  22.578  20.319  0.00  0.00    +0.000 HD
ATOM     11  H   ILE E   1      13.643  24.181  20.201  0.00  0.00    +0.000 HD
TER 
REMARK  Name = /data/user_data/xianyang/t3-aimnet-affinity-balanced/L3/Q16665/pocket.pdb
REMARK                            x       y       z     vdW  Elec       q    Type
REMARK                         _______ _______ _______ _____ _____    ______ ____
ATOM      1  N   GLU F   1       3.775  17.240  27.326  0.00  0.00    +0.000 N 
ATOM      2  CA  GLU F   1       3.235  16.961  26.009  0.00  0.00    +0.000 C 
ATOM      3  C   GLU F   1       2.032  17.846  25.709  0.00  0.00    +0.000 C 
ATOM      4  O   GLU F   1       1.812  18.229  24.557  0.00  0.00    +0.000 OA
ATOM      5  CB  GLU F   1       2.859  15.483  25.905  0.00  0.00    +0.000 C 
ATOM      6  CG  GLU F   1       2.411  15.049  24.520  0.00  0.00    +0.000 C 
ATOM      7  CD  GLU F   1       2.166  13.554  24.446  0.00  0.00    +0.000 C 
ATOM      8  OE2 GLU F   1       2.344  12.875  25.477  0.00  0.00    +0.000 OA
ATOM      9  OE1 GLU F   1       1.813  13.059  23.362  0.00  0.00    +0.000 OA
ATOM     10  H   GLU F   1       4.024  18.227  27.389  0.00  0.00    +0.000 HD
ATOM     11  H   GLU F   1       4.606  16.669  27.481  0.00  0.00    +0.000 HD
ATOM     12  H   GLU F   1       3.075  17.020  28.034  0.00  0.00    +0.000 HD
TER 
REMARK  Name = /data/user_data/xianyang/t3-aimnet-affinity-balanced/L3/Q16665/pocket.pdb
REMARK                            x       y       z     vdW  Elec       q    Type
REMARK                         _______ _______ _______ _____ _____    ______ ____
ATOM      1  N   ASP G   1       3.300  21.176  24.573  0.00  0.00    +0.000 N 
ATOM      2  CA  ASP G   1       3.840  21.131  23.224  0.00  0.00    +0.000 C 
ATOM      3  C   ASP G   1       2.739  21.181  22.178  0.00  0.00    +0.000 C 
ATOM      4  O   ASP G   1       2.919  21.766  21.106  0.00  0.00    +0.000 OA
ATOM      5  CB  ASP G   1       4.680  19.864  23.032  0.00  0.00    +0.000 C 
ATOM      6  CG  ASP G   1       5.944  19.886  23.873  0.00  0.00    +0.000 C 
ATOM      7  OD2 ASP G   1       6.374  20.978  24.282  0.00  0.00    +0.000 OA
ATOM      8  OD1 ASP G   1       6.511  18.798  24.104  0.00  0.00    +0.000 OA
ATOM      9  N   GLN G   2       1.606  20.582  22.457  0.00  0.00    +0.000 N 
ATOM     10  CA  GLN G   2       0.518  20.563  21.494  0.00  0.00    +0.000 C 
ATOM     11  C   GLN G   2      -0.240  21.881  21.449  0.00  0.00    +0.000 C 
ATOM     12  O   GLN G   2      -0.878  22.189  20.438  0.00  0.00    +0.000 OA
ATOM     13  CB  GLN G   2      -0.443  19.421  21.819  0.00  0.00    +0.000 C 
ATOM     14  CG  GLN G   2       0.183  18.042  21.707  0.00  0.00    +0.000 C 
ATOM     15  CD  GLN G   2      -0.781  16.940  22.100  0.00  0.00    +0.000 C 
ATOM     16  OE1 GLN G   2      -1.893  17.203  22.537  0.00  0.00    +0.000 OA
ATOM     17  NE2 GLN G   2      -0.362  15.694  21.942  0.00  0.00    +0.000 N 
ATOM     18  N   GLN G   3      -0.186  22.666  22.503  0.00  0.00    +0.000 N 
ATOM     19  CA  GLN G   3      -0.916  23.921  22.572  0.00  0.00    +0.000 C 
ATOM     20  C   GLN G   3      -0.063  25.120  22.179  0.00  0.00    +0.000 C 
ATOM     21  O   GLN G   3      -0.476  26.260  22.394  0.00  0.00    +0.000 OA
ATOM     22  CB  GLN G   3      -1.475  24.128  23.980  0.00  0.00    +0.000 C 
ATOM     23  CG  GLN G   3      -2.518  23.108  24.385  0.00  0.00    +0.000 C 
ATOM     24  CD  GLN G   3      -3.057  23.351  25.780  0.00  0.00    +0.000 C 
ATOM     25  OE1 GLN G   3      -2.571  24.210  26.501  0.00  0.00    +0.000 OA
ATOM     26  NE2 GLN G   3      -4.073  22.598  26.165  0.00  0.00    +0.000 N 
ATOM     27  N   LEU G   4       1.099  24.900  21.595  0.00  0.00    +0.000 N 
ATOM     28  CA  LEU G   4       1.943  25.995  21.163  0.00  0.00    +0.000 C 
ATOM     29  C   LEU G   4       1.326  26.691  19.963  0.00  0.00    +0.000 C 
ATOM     30  O   LEU G   4       0.851  26.051  19.027  0.00  0.00    +0.000 OA
ATOM     31  CB  LEU G   4       3.344  25.496  20.809  0.00  0.00    +0.000 C 
ATOM     32  CG  LEU G   4       4.186  24.941  21.956  0.00  0.00    +0.000 C 
ATOM     33  CD1 LEU G   4       5.512  24.418  21.435  0.00  0.00    +0.000 C 
ATOM     34  CD2 LEU G   4       4.396  26.002  23.023  0.00  0.00    +0.000 C 
ATOM     35  N   GLU G   5       1.334  28.014  20.009  0.00  0.00    +0.000 N 
ATOM     36  CA  GLU G   5       0.813  28.773  18.885  0.00  0.00    +0.000 C 
ATOM     37  C   GLU G   5       1.750  28.726  17.688  0.00  0.00    +0.000 C 
ATOM     38  O   GLU G   5       1.299  28.750  16.539  0.00  0.00    +0.000 OA
ATOM     39  CB  GLU G   5       0.575  30.228  19.293  0.00  0.00    +0.000 C 
ATOM     40  CG  GLU G   5      -0.518  30.420  20.328  0.00  0.00    +0.000 C 
ATOM     41  CD  GLU G   5      -0.750  31.876  20.666  0.00  0.00    +0.000 C 
ATOM     42  OE1 GLU G   5       0.033  32.721  20.204  0.00  0.00    +0.000 OA
ATOM     43  OE2 GLU G   5      -1.718  32.171  21.383  0.00  0.00    +0.000 OA
ATOM     44  N   GLU G   6       3.041  28.663  17.931  0.00  0.00    +0.000 N 
ATOM     45  CA  GLU G   6       4.031  28.675  16.868  0.00  0.00    +0.000 C 
ATOM     46  C   GLU G   6       5.060  27.592  17.132  0.00  0.00    +0.000 C 
ATOM     47  O   GLU G   6       5.667  27.541  18.201  0.00  0.00    +0.000 OA
ATOM     48  CB  GLU G   6       4.716  30.039  16.763  0.00  0.00    +0.000 C 
ATOM     49  CG  GLU G   6       5.767  30.118  15.664  0.00  0.00    +0.000 C 
ATOM     50  CD  GLU G   6       6.415  31.485  15.586  0.00  0.00    +0.000 C 
ATOM     51  OE2 GLU G   6       6.085  32.350  16.415  0.00  0.00    +0.000 OA
ATOM     52  OE1 GLU G   6       7.256  31.689  14.692  0.00  0.00    +0.000 OA
ATOM     53  N   VAL G   7       5.229  26.720  16.165  0.00  0.00    +0.000 N 
ATOM     54  CA  VAL G   7       6.259  25.696  16.206  0.00  0.00    +0.000 C 
ATOM     55  C   VAL G   7       7.311  26.064  15.169  0.00  0.00    +0.000 C 
ATOM     56  O   VAL G   7       6.980  26.237  13.994  0.00  0.00    +0.000 OA
ATOM     57  CB  VAL G   7       5.684  24.298  15.923  0.00  0.00    +0.000 C 
ATOM     58  CG1 VAL G   7       6.793  23.262  15.877  0.00  0.00    +0.000 C 
ATOM     59  CG2 VAL G   7       4.658  23.939  16.988  0.00  0.00    +0.000 C 
ATOM     60  H   ASP G   1       2.743  22.023  24.688  0.00  0.00    +0.000 HD
ATOM     61  H   ASP G   1       4.066  21.178  25.246  0.00  0.00    +0.000 HD
ATOM     62  H   ASP G   1       2.711  20.358  24.731  0.00  0.00    +0.000 HD
ATOM     63  H   GLN G   2       1.491  20.140  23.329  0.00  0.00    +0.000 HD
ATOM     64  H   GLN G   2       0.540  15.519  21.587  0.00  0.00    +0.000 HD
ATOM     65  H   GLN G   2      -0.952  14.942  22.179  0.00  0.00    +0.000 HD
ATOM     66  H   GLN G   3       0.367  22.394  23.271  0.00  0.00    +0.000 HD
ATOM     67  H   GLN G   3      -4.438  21.916  25.557  0.00  0.00    +0.000 HD
ATOM     68  H   GLN G   3      -4.464  22.720  27.060  0.00  0.00    +0.000 HD
ATOM     69  H   LEU G   4       1.399  23.973  21.450  0.00  0.00    +0.000 HD
ATOM     70  H   GLU G   5       1.691  28.480  20.799  0.00  0.00    +0.000 HD
ATOM     71  H   GLU G   6       3.347  28.606  18.865  0.00  0.00    +0.000 HD
ATOM     72  H   VAL G   7       4.634  26.762  15.381  0.00  0.00    +0.000 HD
TER 
REMARK  Name = /data/user_data/xianyang/t3-aimnet-affinity-balanced/L3/Q16665/pocket.pdb
REMARK                            x       y       z     vdW  Elec       q    Type
REMARK                         _______ _______ _______ _____ _____    ______ ____
ATOM      1  N   LEU H   1       9.174  25.311  12.666  0.00  0.00    +0.000 N 
ATOM      2  CA  LEU H   1       9.499  24.365  11.618  0.00  0.00    +0.000 C 
ATOM      3  C   LEU H   1      10.539  24.965  10.678  0.00  0.00    +0.000 C 
ATOM      4  O   LEU H   1      10.557  26.168  10.424  0.00  0.00    +0.000 OA
ATOM      5  CB  LEU H   1       8.244  23.969  10.837  0.00  0.00    +0.000 C 
ATOM      6  CG  LEU H   1       7.141  23.307  11.656  0.00  0.00    +0.000 C 
ATOM      7  CD1 LEU H   1       5.929  23.008  10.784  0.00  0.00    +0.000 C 
ATOM      8  CD2 LEU H   1       7.646  22.047  12.330  0.00  0.00    +0.000 C 
ATOM      9  H   LEU H   1      10.023  25.561  13.173  0.00  0.00    +0.000 HD
ATOM     10  H   LEU H   1       8.505  24.889  13.310  0.00  0.00    +0.000 HD
ATOM     11  H   LEU H   1       8.765  26.149  12.253  0.00  0.00    +0.000 HD
TER 
REMARK  Name = /data/user_data/xianyang/t3-aimnet-affinity-balanced/L3/Q16665/pocket.pdb
REMARK                            x       y       z     vdW  Elec       q    Type
REMARK                         _______ _______ _______ _____ _____    ______ ____
ATOM      1  N   HIS I   1       6.309  13.369   8.138  0.00  0.00    +0.000 N 
ATOM      2  CA  HIS I   1       6.047  14.439   9.092  0.00  0.00    +0.000 C 
ATOM      3  C   HIS I   1       4.563  14.534   9.418  0.00  0.00    +0.000 C 
ATOM      4  O   HIS I   1       4.190  14.792  10.568  0.00  0.00    +0.000 OA
ATOM      5  CB  HIS I   1       6.562  15.767   8.539  0.00  0.00    +0.000 C 
ATOM      6  CG  HIS I   1       6.208  16.947   9.386  0.00  0.00    +0.000 A 
ATOM      7  ND1 HIS I   1       6.854  17.239  10.564  0.00  0.00    +0.000 N 
ATOM      8  CD2 HIS I   1       5.275  17.911   9.207  0.00  0.00    +0.000 A 
ATOM      9  CE1 HIS I   1       6.330  18.338  11.076  0.00  0.00    +0.000 A 
ATOM     10  NE2 HIS I   1       5.374  18.763  10.281  0.00  0.00    +0.000 NA
ATOM     11  N   ASP I   2       3.690  14.336   8.442  0.00  0.00    +0.000 N 
ATOM     12  CA  ASP I   2       2.260  14.374   8.690  0.00  0.00    +0.000 C 
ATOM     13  C   ASP I   2       1.757  13.131   9.408  0.00  0.00    +0.000 C 
ATOM     14  O   ASP I   2       0.631  13.135   9.914  0.00  0.00    +0.000 OA
ATOM     15  CB  ASP I   2       1.498  14.541   7.373  0.00  0.00    +0.000 C 
ATOM     16  CG  ASP I   2       1.741  15.897   6.747  0.00  0.00    +0.000 C 
ATOM     17  OD2 ASP I   2       2.126  16.836   7.464  0.00  0.00    +0.000 OA
ATOM     18  OD1 ASP I   2       1.532  16.024   5.525  0.00  0.00    +0.000 OA
ATOM     19  H   HIS I   1       7.308  13.329   7.938  0.00  0.00    +0.000 HD
ATOM     20  H   HIS I   1       5.797  13.550   7.275  0.00  0.00    +0.000 HD
ATOM     21  H   HIS I   1       6.005  12.479   8.533  0.00  0.00    +0.000 HD
ATOM     22  H   HIS I   1       7.587  16.715  10.961  0.00  0.00    +0.000 HD
ATOM     23  H   ASP I   2       4.017  14.160   7.530  0.00  0.00    +0.000 HD
TER 
REMARK  Name = /data/user_data/xianyang/t3-aimnet-affinity-balanced/L3/Q16665/pocket.pdb
REMARK                            x       y       z     vdW  Elec       q    Type
REMARK                         _______ _______ _______ _____ _____    ______ ____
ATOM      1  N   TYR J   1       1.563  25.505   6.218  0.00  0.00    +0.000 N 
ATOM      2  CA  TYR J   1       2.543  25.521   7.293  0.00  0.00    +0.000 C 
ATOM      3  C   TYR J   1       3.213  24.162   7.443  0.00  0.00    +0.000 C 
ATOM      4  O   TYR J   1       4.418  24.084   7.706  0.00  0.00    +0.000 OA
ATOM      5  CB  TYR J   1       1.867  25.947   8.595  0.00  0.00    +0.000 C 
ATOM      6  CG  TYR J   1       2.802  26.037   9.778  0.00  0.00    +0.000 A 
ATOM      7  CD1 TYR J   1       3.629  27.136   9.955  0.00  0.00    +0.000 A 
ATOM      8  CD2 TYR J   1       2.836  25.030  10.730  0.00  0.00    +0.000 A 
ATOM      9  CE1 TYR J   1       4.476  27.225  11.048  0.00  0.00    +0.000 A 
ATOM     10  CE2 TYR J   1       3.681  25.114  11.824  0.00  0.00    +0.000 A 
ATOM     11  CZ  TYR J   1       4.495  26.212  11.976  0.00  0.00    +0.000 A 
ATOM     12  OH  TYR J   1       5.333  26.292  13.066  0.00  0.00    +0.000 OA
ATOM     13  N   ASP J   2       2.468  23.085   7.279  0.00  0.00    +0.000 N 
ATOM     14  CA  ASP J   2       3.062  21.763   7.352  0.00  0.00    +0.000 C 
ATOM     15  C   ASP J   2       3.990  21.495   6.173  0.00  0.00    +0.000 C 
ATOM     16  O   ASP J   2       4.971  20.758   6.308  0.00  0.00    +0.000 OA
ATOM     17  CB  ASP J   2       1.964  20.694   7.399  0.00  0.00    +0.000 C 
ATOM     18  CG  ASP J   2       1.119  20.793   8.656  0.00  0.00    +0.000 C 
ATOM     19  OD2 ASP J   2       1.633  21.270   9.685  0.00  0.00    +0.000 OA
ATOM     20  OD1 ASP J   2      -0.050  20.375   8.613  0.00  0.00    +0.000 OA
ATOM     21  H   TYR J   1       2.016  25.220   5.349  0.00  0.00    +0.000 HD
ATOM     22  H   TYR J   1       1.167  26.438   6.105  0.00  0.00    +0.000 HD
ATOM     23  H   TYR J   1       0.819  24.845   6.446  0.00  0.00    +0.000 HD
ATOM     24  H   TYR J   1       5.890  27.038  13.175  0.00  0.00    +0.000 HD
ATOM     25  H   ASP J   2       1.503  23.179   7.106  0.00  0.00    +0.000 HD
TER 
REMARK  Name = /data/user_data/xianyang/t3-aimnet-affinity-balanced/L3/Q16665/pocket.pdb
REMARK                            x       y       z     vdW  Elec       q    Type
REMARK                         _______ _______ _______ _____ _____    ______ ____
ATOM      1  N   VAL K   1       7.997  22.368   6.222  0.00  0.00    +0.000 N 
ATOM      2  CA  VAL K   1       9.004  21.540   6.856  0.00  0.00    +0.000 C 
ATOM      3  C   VAL K   1       9.938  20.932   5.815  0.00  0.00    +0.000 C 
ATOM      4  O   VAL K   1      11.153  20.815   6.039  0.00  0.00    +0.000 OA
ATOM      5  CB  VAL K   1       8.332  20.443   7.702  0.00  0.00    +0.000 C 
ATOM      6  CG1 VAL K   1       9.379  19.576   8.373  0.00  0.00    +0.000 C 
ATOM      7  CG2 VAL K   1       7.422  21.082   8.736  0.00  0.00    +0.000 C 
ATOM      8  H   VAL K   1       8.453  23.091   5.665  0.00  0.00    +0.000 HD
ATOM      9  H   VAL K   1       7.417  22.806   6.938  0.00  0.00    +0.000 HD
ATOM     10  H   VAL K   1       7.413  21.790   5.618  0.00  0.00    +0.000 HD
TER 
