REMARK  Name = /data/user_data/xianyang/t3-aimnet-affinity-balanced/L2/P41143/pocket.pdb
REMARK                            x       y       z     vdW  Elec       q    Type
REMARK                         _______ _______ _______ _____ _____    ______ ____
ATOM      1  N   ASP A   1     -13.216 -73.322  75.246  0.00  0.00    +0.000 N 
ATOM      2  CA  ASP A   1     -11.837 -72.897  75.073  0.00  0.00    +0.000 C 
ATOM      3  C   ASP A   1     -11.617 -71.418  75.486  0.00  0.00    +0.000 C 
ATOM      4  O   ASP A   1     -10.667 -71.069  76.230  0.00  0.00    +0.000 OA
ATOM      5  CB  ASP A   1     -11.372 -73.153  73.657  0.00  0.00    +0.000 C 
ATOM      6  CG  ASP A   1      -9.893 -73.414  73.613  0.00  0.00    +0.000 C 
ATOM      7  OD2 ASP A   1      -9.422 -74.186  74.478  0.00  0.00    +0.000 OA
ATOM      8  OD1 ASP A   1      -9.227 -72.890  72.722  0.00  0.00    +0.000 OA
ATOM      9  N   TYR A   2     -12.524 -70.555  75.062  0.00  0.00    +0.000 N 
ATOM     10  CA  TYR A   2     -12.492 -69.181  75.450  0.00  0.00    +0.000 C 
ATOM     11  C   TYR A   2     -12.862 -68.925  76.926  0.00  0.00    +0.000 C 
ATOM     12  O   TYR A   2     -12.274 -68.086  77.563  0.00  0.00    +0.000 OA
ATOM     13  CB  TYR A   2     -13.362 -68.342  74.514  0.00  0.00    +0.000 C 
ATOM     14  CG  TYR A   2     -12.675 -68.013  73.210  0.00  0.00    +0.000 A 
ATOM     15  CD1 TYR A   2     -12.616 -68.939  72.181  0.00  0.00    +0.000 A 
ATOM     16  CD2 TYR A   2     -12.015 -66.785  73.036  0.00  0.00    +0.000 A 
ATOM     17  CE1 TYR A   2     -11.957 -68.641  70.999  0.00  0.00    +0.000 A 
ATOM     18  CE2 TYR A   2     -11.374 -66.470  71.845  0.00  0.00    +0.000 A 
ATOM     19  CZ  TYR A   2     -11.359 -67.397  70.839  0.00  0.00    +0.000 A 
ATOM     20  OH  TYR A   2     -10.741 -67.126  69.653  0.00  0.00    +0.000 OA
ATOM     21  H   ASP A   1     -13.309 -74.297  74.962  0.00  0.00    +0.000 HD
ATOM     22  H   ASP A   1     -13.826 -72.741  74.671  0.00  0.00    +0.000 HD
ATOM     23  H   ASP A   1     -13.481 -73.226  76.226  0.00  0.00    +0.000 HD
ATOM     24  H   TYR A   2     -13.240 -70.868  74.463  0.00  0.00    +0.000 HD
ATOM     25  H   TYR A   2     -10.736 -67.767  68.970  0.00  0.00    +0.000 HD
TER 
REMARK  Name = /data/user_data/xianyang/t3-aimnet-affinity-balanced/L2/P41143/pocket.pdb
REMARK                            x       y       z     vdW  Elec       q    Type
REMARK                         _______ _______ _______ _____ _____    ______ ____
ATOM      1  N   ASN B   1     -12.330 -71.008  79.396  0.00  0.00    +0.000 N 
ATOM      2  CA  ASN B   1     -11.160 -71.383  80.182  0.00  0.00    +0.000 C 
ATOM      3  C   ASN B   1     -10.096 -70.265  80.195  0.00  0.00    +0.000 C 
ATOM      4  O   ASN B   1      -9.552 -69.939  81.244  0.00  0.00    +0.000 OA
ATOM      5  CB  ASN B   1     -10.534 -72.679  79.634  0.00  0.00    +0.000 C 
ATOM      6  CG  ASN B   1      -9.267 -73.087  80.386  0.00  0.00    +0.000 C 
ATOM      7  OD1 ASN B   1      -9.244 -73.081  81.602  0.00  0.00    +0.000 OA
ATOM      8  ND2 ASN B   1      -8.284 -73.549  79.660  0.00  0.00    +0.000 N 
ATOM      9  N   MET B   2      -9.800 -69.722  79.026  0.00  0.00    +0.000 N 
ATOM     10  CA  MET B   2      -8.862 -68.645  78.883  0.00  0.00    +0.000 C 
ATOM     11  C   MET B   2      -9.227 -67.438  79.761  0.00  0.00    +0.000 C 
ATOM     12  O   MET B   2      -8.375 -66.879  80.477  0.00  0.00    +0.000 OA
ATOM     13  CB  MET B   2      -8.744 -68.241  77.412  0.00  0.00    +0.000 C 
ATOM     14  CG  MET B   2      -7.729 -67.088  77.219  0.00  0.00    +0.000 C 
ATOM     15  SD  MET B   2      -7.176 -66.936  75.509  0.00  0.00    +0.000 S 
ATOM     16  CE  MET B   2      -8.745 -66.643  74.644  0.00  0.00    +0.000 C 
ATOM     17  H   ASN B   1     -13.008 -71.770  79.411  0.00  0.00    +0.000 HD
ATOM     18  H   ASN B   1     -12.048 -70.823  78.433  0.00  0.00    +0.000 HD
ATOM     19  H   ASN B   1     -12.752 -70.169  79.794  0.00  0.00    +0.000 HD
ATOM     20  H   ASN B   1      -8.348 -73.533  78.678  0.00  0.00    +0.000 HD
ATOM     21  H   ASN B   1      -7.479 -73.913  80.095  0.00  0.00    +0.000 HD
ATOM     22  H   MET B   2     -10.242 -70.072  78.219  0.00  0.00    +0.000 HD
TER 
REMARK  Name = /data/user_data/xianyang/t3-aimnet-affinity-balanced/L2/P41143/pocket.pdb
REMARK                            x       y       z     vdW  Elec       q    Type
REMARK                         _______ _______ _______ _____ _____    ______ ____
ATOM      1  N   THR C   1     -10.574 -58.572  68.019  0.00  0.00    +0.000 N 
ATOM      2  CA  THR C   1     -10.793 -59.555  69.082  0.00  0.00    +0.000 C 
ATOM      3  C   THR C   1      -9.464 -60.049  69.635  0.00  0.00    +0.000 C 
ATOM      4  O   THR C   1      -9.291 -60.122  70.839  0.00  0.00    +0.000 OA
ATOM      5  CB  THR C   1     -11.578 -60.775  68.579  0.00  0.00    +0.000 C 
ATOM      6  OG1 THR C   1     -12.856 -60.349  68.136  0.00  0.00    +0.000 OA
ATOM      7  CG2 THR C   1     -11.805 -61.791  69.697  0.00  0.00    +0.000 C 
ATOM      8  N   LYS C   2      -8.535 -60.396  68.758  0.00  0.00    +0.000 N 
ATOM      9  CA  LYS C   2      -7.205 -60.866  69.201  0.00  0.00    +0.000 C 
ATOM     10  C   LYS C   2      -6.448 -59.819  70.001  0.00  0.00    +0.000 C 
ATOM     11  O   LYS C   2      -5.782 -60.148  70.967  0.00  0.00    +0.000 OA
ATOM     12  CB  LYS C   2      -6.396 -61.345  68.007  0.00  0.00    +0.000 C 
ATOM     13  CG  LYS C   2      -6.953 -62.674  67.507  0.00  0.00    +0.000 C 
ATOM     14  CD  LYS C   2      -6.515 -63.031  66.123  0.00  0.00    +0.000 C 
ATOM     15  CE  LYS C   2      -6.809 -64.502  65.808  0.00  0.00    +0.000 C 
ATOM     16  NZ  LYS C   2      -6.496 -64.839  64.400  0.00  0.00    +0.000 N 
ATOM     17  H   THR C   1     -11.474 -58.252  67.661  0.00  0.00    +0.000 HD
ATOM     18  H   THR C   1     -10.040 -59.002  67.263  0.00  0.00    +0.000 HD
ATOM     19  H   THR C   1     -10.055 -57.777  68.392  0.00  0.00    +0.000 HD
ATOM     20  H   THR C   1     -13.337 -59.946  68.876  0.00  0.00    +0.000 HD
ATOM     21  H   LYS C   2      -8.733 -60.340  67.795  0.00  0.00    +0.000 HD
ATOM     22  H   LYS C   2      -5.503 -64.684  64.226  0.00  0.00    +0.000 HD
ATOM     23  H   LYS C   2      -7.047 -64.247  63.778  0.00  0.00    +0.000 HD
ATOM     24  H   LYS C   2      -6.723 -65.818  64.226  0.00  0.00    +0.000 HD
TER 
REMARK  Name = /data/user_data/xianyang/t3-aimnet-affinity-balanced/L2/P41143/pocket.pdb
REMARK                            x       y       z     vdW  Elec       q    Type
REMARK                         _______ _______ _______ _____ _____    ______ ____
ATOM      1  N   VAL D   1      -8.105 -59.688  73.432  0.00  0.00    +0.000 N 
ATOM      2  CA  VAL D   1      -7.738 -60.858  74.211  0.00  0.00    +0.000 C 
ATOM      3  C   VAL D   1      -6.313 -60.681  74.792  0.00  0.00    +0.000 C 
ATOM      4  O   VAL D   1      -6.082 -60.922  75.984  0.00  0.00    +0.000 OA
ATOM      5  CB  VAL D   1      -7.787 -62.149  73.386  0.00  0.00    +0.000 C 
ATOM      6  CG2 VAL D   1      -7.193 -63.309  74.142  0.00  0.00    +0.000 C 
ATOM      7  CG1 VAL D   1      -9.224 -62.487  72.949  0.00  0.00    +0.000 C 
ATOM      8  N   PHE D   2      -5.390 -60.225  73.956  0.00  0.00    +0.000 N 
ATOM      9  CA  PHE D   2      -4.024 -59.972  74.394  0.00  0.00    +0.000 C 
ATOM     10  C   PHE D   2      -4.022 -58.943  75.545  0.00  0.00    +0.000 C 
ATOM     11  O   PHE D   2      -3.316 -59.128  76.540  0.00  0.00    +0.000 OA
ATOM     12  CB  PHE D   2      -3.185 -59.517  73.205  0.00  0.00    +0.000 C 
ATOM     13  CG  PHE D   2      -1.753 -59.223  73.545  0.00  0.00    +0.000 A 
ATOM     14  CD2 PHE D   2      -0.852 -60.255  73.840  0.00  0.00    +0.000 A 
ATOM     15  CD1 PHE D   2      -1.303 -57.933  73.544  0.00  0.00    +0.000 A 
ATOM     16  CE2 PHE D   2       0.481 -59.965  74.156  0.00  0.00    +0.000 A 
ATOM     17  CE1 PHE D   2       0.019 -57.638  73.865  0.00  0.00    +0.000 A 
ATOM     18  CZ  PHE D   2       0.903 -58.652  74.152  0.00  0.00    +0.000 A 
ATOM     19  H   VAL D   1      -9.044 -59.812  73.053  0.00  0.00    +0.000 HD
ATOM     20  H   VAL D   1      -7.442 -59.568  72.666  0.00  0.00    +0.000 HD
ATOM     21  H   VAL D   1      -8.086 -58.862  74.030  0.00  0.00    +0.000 HD
ATOM     22  H   PHE D   2      -5.634 -60.054  73.018  0.00  0.00    +0.000 HD
TER 
REMARK  Name = /data/user_data/xianyang/t3-aimnet-affinity-balanced/L2/P41143/pocket.pdb
REMARK                            x       y       z     vdW  Elec       q    Type
REMARK                         _______ _______ _______ _____ _____    ______ ____
ATOM      1  N   TRP E   1       1.053 -69.905  79.693  0.00  0.00    +0.000 N 
ATOM      2  CA  TRP E   1       0.147 -69.164  78.812  0.00  0.00    +0.000 C 
ATOM      3  C   TRP E   1       0.800 -68.001  78.060  0.00  0.00    +0.000 C 
ATOM      4  O   TRP E   1       0.306 -67.566  77.004  0.00  0.00    +0.000 OA
ATOM      5  CB  TRP E   1      -1.048 -68.639  79.601  0.00  0.00    +0.000 C 
ATOM      6  CG  TRP E   1      -2.097 -69.674  79.855  0.00  0.00    +0.000 C 
ATOM      7  CD1 TRP E   1      -2.122 -70.582  80.872  0.00  0.00    +0.000 C 
ATOM      8  CD2 TRP E   1      -3.319 -69.876  79.091  0.00  0.00    +0.000 A 
ATOM      9  NE1 TRP E   1      -3.288 -71.337  80.804  0.00  0.00    +0.000 NA
ATOM     10  CE2 TRP E   1      -4.039 -70.913  79.731  0.00  0.00    +0.000 A 
ATOM     11  CE3 TRP E   1      -3.888 -69.243  77.974  0.00  0.00    +0.000 A 
ATOM     12  CZ2 TRP E   1      -5.268 -71.367  79.257  0.00  0.00    +0.000 A 
ATOM     13  CZ3 TRP E   1      -5.146 -69.688  77.495  0.00  0.00    +0.000 A 
ATOM     14  CH2 TRP E   1      -5.821 -70.734  78.149  0.00  0.00    +0.000 A 
ATOM     15  H   TRP E   1       1.846 -70.250  79.153  0.00  0.00    +0.000 HD
ATOM     16  H   TRP E   1       0.555 -70.693  80.107  0.00  0.00    +0.000 HD
ATOM     17  H   TRP E   1       1.388 -69.288  80.433  0.00  0.00    +0.000 HD
TER 
REMARK  Name = /data/user_data/xianyang/t3-aimnet-affinity-balanced/L2/P41143/pocket.pdb
REMARK                            x       y       z     vdW  Elec       q    Type
REMARK                         _______ _______ _______ _____ _____    ______ ____
ATOM      1  N   ILE F   1       1.848 -68.960  74.244  0.00  0.00    +0.000 N 
ATOM      2  CA  ILE F   1       0.743 -68.925  73.287  0.00  0.00    +0.000 C 
ATOM      3  C   ILE F   1       0.091 -67.533  73.124  0.00  0.00    +0.000 C 
ATOM      4  O   ILE F   1      -0.260 -67.144  72.003  0.00  0.00    +0.000 OA
ATOM      5  CB  ILE F   1      -0.293 -70.046  73.517  0.00  0.00    +0.000 C 
ATOM      6  CG1 ILE F   1      -1.248 -70.125  72.312  0.00  0.00    +0.000 C 
ATOM      7  CG2 ILE F   1      -1.027 -69.832  74.830  0.00  0.00    +0.000 C 
ATOM      8  CD1 ILE F   1      -0.560 -70.309  70.956  0.00  0.00    +0.000 C 
ATOM      9  N   HIS F   2      -0.013 -66.740  74.185  0.00  0.00    +0.000 N 
ATOM     10  CA  HIS F   2      -0.572 -65.396  74.026  0.00  0.00    +0.000 C 
ATOM     11  C   HIS F   2       0.237 -64.551  73.061  0.00  0.00    +0.000 C 
ATOM     12  O   HIS F   2      -0.313 -63.836  72.226  0.00  0.00    +0.000 OA
ATOM     13  CB  HIS F   2      -0.741 -64.680  75.368  0.00  0.00    +0.000 C 
ATOM     14  CG  HIS F   2      -2.096 -64.931  76.002  0.00  0.00    +0.000 C 
ATOM     15  ND1 HIS F   2      -3.264 -64.505  75.430  0.00  0.00    +0.000 NA
ATOM     16  CD2 HIS F   2      -2.449 -65.562  77.141  0.00  0.00    +0.000 C 
ATOM     17  CE1 HIS F   2      -4.289 -64.848  76.188  0.00  0.00    +0.000 C 
ATOM     18  NE2 HIS F   2      -3.823 -65.482  77.242  0.00  0.00    +0.000 NA
ATOM     19  H   ILE F   1       2.497 -68.199  74.042  0.00  0.00    +0.000 HD
ATOM     20  H   ILE F   1       2.336 -69.852  74.167  0.00  0.00    +0.000 HD
ATOM     21  H   ILE F   1       1.482 -68.853  75.190  0.00  0.00    +0.000 HD
ATOM     22  H   HIS F   2       0.283 -67.053  75.070  0.00  0.00    +0.000 HD
TER 
REMARK  Name = /data/user_data/xianyang/t3-aimnet-affinity-balanced/L2/P41143/pocket.pdb
REMARK                            x       y       z     vdW  Elec       q    Type
REMARK                         _______ _______ _______ _____ _____    ______ ____
ATOM      1  N   PHE G   1       2.330 -65.769  70.765  0.00  0.00    +0.000 N 
ATOM      2  CA  PHE G   1       2.388 -66.427  69.469  0.00  0.00    +0.000 C 
ATOM      3  C   PHE G   1       1.121 -66.146  68.675  0.00  0.00    +0.000 C 
ATOM      4  O   PHE G   1       1.200 -66.000  67.463  0.00  0.00    +0.000 OA
ATOM      5  CB  PHE G   1       2.608 -67.952  69.689  0.00  0.00    +0.000 C 
ATOM      6  CG  PHE G   1       3.478 -68.638  68.662  0.00  0.00    +0.000 A 
ATOM      7  CD1 PHE G   1       3.416 -68.318  67.315  0.00  0.00    +0.000 A 
ATOM      8  CD2 PHE G   1       4.344 -69.656  69.070  0.00  0.00    +0.000 A 
ATOM      9  CE1 PHE G   1       4.184 -69.000  66.393  0.00  0.00    +0.000 A 
ATOM     10  CE2 PHE G   1       5.110 -70.347  68.152  0.00  0.00    +0.000 A 
ATOM     11  CZ  PHE G   1       5.041 -70.016  66.814  0.00  0.00    +0.000 A 
ATOM     12  N   VAL G   2      -0.038 -66.030  69.329  0.00  0.00    +0.000 N 
ATOM     13  CA  VAL G   2      -1.301 -65.759  68.591  0.00  0.00    +0.000 C 
ATOM     14  C   VAL G   2      -1.216 -64.385  67.925  0.00  0.00    +0.000 C 
ATOM     15  O   VAL G   2      -1.619 -64.196  66.779  0.00  0.00    +0.000 OA
ATOM     16  CB  VAL G   2      -2.590 -65.858  69.470  0.00  0.00    +0.000 C 
ATOM     17  CG1 VAL G   2      -3.814 -65.300  68.755  0.00  0.00    +0.000 C 
ATOM     18  CG2 VAL G   2      -2.862 -67.308  69.852  0.00  0.00    +0.000 C 
ATOM     19  H   PHE G   1       2.186 -64.768  70.632  0.00  0.00    +0.000 HD
ATOM     20  H   PHE G   1       3.206 -65.923  71.264  0.00  0.00    +0.000 HD
ATOM     21  H   PHE G   1       1.557 -66.155  71.308  0.00  0.00    +0.000 HD
ATOM     22  H   VAL G   2      -0.057 -66.125  70.309  0.00  0.00    +0.000 HD
TER 
REMARK  Name = /data/user_data/xianyang/t3-aimnet-affinity-balanced/L2/P41143/pocket.pdb
REMARK                            x       y       z     vdW  Elec       q    Type
REMARK                         _______ _______ _______ _____ _____    ______ ____
ATOM      1  N   TRP H   1       1.323 -64.645  65.013  0.00  0.00    +0.000 N 
ATOM      2  CA  TRP H   1       0.740 -65.371  63.905  0.00  0.00    +0.000 C 
ATOM      3  C   TRP H   1      -0.281 -64.535  63.125  0.00  0.00    +0.000 C 
ATOM      4  O   TRP H   1      -0.387 -64.645  61.898  0.00  0.00    +0.000 OA
ATOM      5  CB  TRP H   1       0.022 -66.587  64.432  0.00  0.00    +0.000 C 
ATOM      6  CG  TRP H   1      -0.433 -67.543  63.399  0.00  0.00    +0.000 C 
ATOM      7  CD1 TRP H   1      -1.605 -67.512  62.700  0.00  0.00    +0.000 C 
ATOM      8  CD2 TRP H   1       0.245 -68.729  62.995  0.00  0.00    +0.000 C 
ATOM      9  NE1 TRP H   1      -1.680 -68.595  61.858  0.00  0.00    +0.000 NA
ATOM     10  CE2 TRP H   1      -0.560 -69.361  62.024  0.00  0.00    +0.000 C 
ATOM     11  CE3 TRP H   1       1.452 -69.318  63.365  0.00  0.00    +0.000 C 
ATOM     12  CZ2 TRP H   1      -0.187 -70.549  61.406  0.00  0.00    +0.000 C 
ATOM     13  CZ3 TRP H   1       1.834 -70.489  62.752  0.00  0.00    +0.000 C 
ATOM     14  CH2 TRP H   1       1.009 -71.109  61.792  0.00  0.00    +0.000 C 
ATOM     15  N   THR H   2      -1.029 -63.722  63.847  0.00  0.00    +0.000 N 
ATOM     16  CA  THR H   2      -2.091 -62.936  63.246  0.00  0.00    +0.000 C 
ATOM     17  C   THR H   2      -1.597 -61.666  62.547  0.00  0.00    +0.000 C 
ATOM     18  O   THR H   2      -2.108 -61.336  61.480  0.00  0.00    +0.000 OA
ATOM     19  CB  THR H   2      -3.149 -62.568  64.286  0.00  0.00    +0.000 C 
ATOM     20  OG1 THR H   2      -3.688 -63.774  64.849  0.00  0.00    +0.000 OA
ATOM     21  CG2 THR H   2      -4.290 -61.741  63.652  0.00  0.00    +0.000 C 
ATOM     22  H   TRP H   1       1.810 -63.821  64.661  0.00  0.00    +0.000 HD
ATOM     23  H   TRP H   1       1.984 -65.247  65.504  0.00  0.00    +0.000 HD
ATOM     24  H   TRP H   1       0.586 -64.355  65.655  0.00  0.00    +0.000 HD
ATOM     25  H   THR H   2      -0.863 -63.647  64.815  0.00  0.00    +0.000 HD
ATOM     26  H   THR H   2      -4.101 -64.302  64.148  0.00  0.00    +0.000 HD
TER 
REMARK  Name = /data/user_data/xianyang/t3-aimnet-affinity-balanced/L2/P41143/pocket.pdb
REMARK                            x       y       z     vdW  Elec       q    Type
REMARK                         _______ _______ _______ _____ _____    ______ ____
ATOM      1  N   LEU I   1       4.177 -73.566  67.417  0.00  0.00    +0.000 N 
ATOM      2  CA  LEU I   1       2.851 -73.033  67.738  0.00  0.00    +0.000 C 
ATOM      3  C   LEU I   1       2.034 -74.099  68.483  0.00  0.00    +0.000 C 
ATOM      4  O   LEU I   1       1.415 -73.844  69.521  0.00  0.00    +0.000 OA
ATOM      5  CB  LEU I   1       2.122 -72.578  66.487  0.00  0.00    +0.000 C 
ATOM      6  CG  LEU I   1       0.669 -72.126  66.710  0.00  0.00    +0.000 C 
ATOM      7  CD2 LEU I   1       0.646 -70.776  67.429  0.00  0.00    +0.000 C 
ATOM      8  CD1 LEU I   1      -0.110 -72.106  65.408  0.00  0.00    +0.000 C 
ATOM      9  H   LEU I   1       4.718 -72.857  66.922  0.00  0.00    +0.000 HD
ATOM     10  H   LEU I   1       4.078 -74.391  66.826  0.00  0.00    +0.000 HD
ATOM     11  H   LEU I   1       4.659 -73.821  68.279  0.00  0.00    +0.000 HD
TER 
REMARK  Name = /data/user_data/xianyang/t3-aimnet-affinity-balanced/L2/P41143/pocket.pdb
REMARK                            x       y       z     vdW  Elec       q    Type
REMARK                         _______ _______ _______ _____ _____    ______ ____
ATOM      1  N   CYS J   1       3.150 -74.650  71.959  0.00  0.00    +0.000 N 
ATOM      2  CA  CYS J   1       2.686 -73.571  72.840  0.00  0.00    +0.000 C 
ATOM      3  C   CYS J   1       1.199 -73.745  73.210  0.00  0.00    +0.000 C 
ATOM      4  O   CYS J   1       0.794 -73.461  74.348  0.00  0.00    +0.000 OA
ATOM      5  CB  CYS J   1       2.924 -72.210  72.218  0.00  0.00    +0.000 C 
ATOM      6  SG  CYS J   1       4.716 -71.795  72.169  0.00  0.00    +0.000 S 
ATOM      7  N   ILE J   2       0.401 -74.183  72.249  0.00  0.00    +0.000 N 
ATOM      8  CA  ILE J   2      -1.030 -74.489  72.545  0.00  0.00    +0.000 C 
ATOM      9  C   ILE J   2      -1.090 -75.610  73.566  0.00  0.00    +0.000 C 
ATOM     10  O   ILE J   2      -1.812 -75.525  74.553  0.00  0.00    +0.000 OA
ATOM     11  CB  ILE J   2      -1.837 -74.848  71.263  0.00  0.00    +0.000 C 
ATOM     12  CG1 ILE J   2      -1.941 -73.625  70.348  0.00  0.00    +0.000 C 
ATOM     13  CG2 ILE J   2      -3.229 -75.389  71.620  0.00  0.00    +0.000 C 
ATOM     14  CD1 ILE J   2      -2.336 -73.934  68.926  0.00  0.00    +0.000 C 
ATOM     15  N   ALA J   3      -0.321 -76.682  73.338  0.00  0.00    +0.000 N 
ATOM     16  CA  ALA J   3      -0.346 -77.822  74.252  0.00  0.00    +0.000 C 
ATOM     17  C   ALA J   3       0.063 -77.392  75.682  0.00  0.00    +0.000 C 
ATOM     18  O   ALA J   3      -0.512 -77.843  76.665  0.00  0.00    +0.000 OA
ATOM     19  CB  ALA J   3       0.557 -78.942  73.736  0.00  0.00    +0.000 C 
ATOM     20  N   LEU J   4       1.073 -76.523  75.791  0.00  0.00    +0.000 N 
ATOM     21  CA  LEU J   4       1.546 -76.030  77.075  0.00  0.00    +0.000 C 
ATOM     22  C   LEU J   4       0.466 -75.277  77.847  0.00  0.00    +0.000 C 
ATOM     23  O   LEU J   4       0.370 -75.397  79.085  0.00  0.00    +0.000 OA
ATOM     24  CB  LEU J   4       2.767 -75.112  76.856  0.00  0.00    +0.000 C 
ATOM     25  CG  LEU J   4       3.428 -74.546  78.099  0.00  0.00    +0.000 C 
ATOM     26  CD2 LEU J   4       3.919 -75.668  79.008  0.00  0.00    +0.000 C 
ATOM     27  CD1 LEU J   4       4.622 -73.642  77.662  0.00  0.00    +0.000 C 
ATOM     28  N   GLY J   5      -0.341 -74.501  77.117  0.00  0.00    +0.000 N 
ATOM     29  CA  GLY J   5      -1.528 -73.850  77.683  0.00  0.00    +0.000 C 
ATOM     30  C   GLY J   5      -2.542 -74.844  78.288  0.00  0.00    +0.000 C 
ATOM     31  O   GLY J   5      -3.015 -74.651  79.421  0.00  0.00    +0.000 OA
ATOM     32  N   TYR J   6      -2.839 -75.918  77.556  0.00  0.00    +0.000 N 
ATOM     33  CA  TYR J   6      -3.694 -76.985  78.110  0.00  0.00    +0.000 C 
ATOM     34  C   TYR J   6      -3.042 -77.725  79.267  0.00  0.00    +0.000 C 
ATOM     35  O   TYR J   6      -3.722 -78.085  80.231  0.00  0.00    +0.000 OA
ATOM     36  CB  TYR J   6      -4.104 -77.997  77.038  0.00  0.00    +0.000 C 
ATOM     37  CG  TYR J   6      -5.073 -77.449  76.068  0.00  0.00    +0.000 A 
ATOM     38  CD2 TYR J   6      -6.303 -76.958  76.501  0.00  0.00    +0.000 A 
ATOM     39  CD1 TYR J   6      -4.782 -77.408  74.719  0.00  0.00    +0.000 A 
ATOM     40  CE2 TYR J   6      -7.211 -76.451  75.595  0.00  0.00    +0.000 A 
ATOM     41  CE1 TYR J   6      -5.692 -76.872  73.802  0.00  0.00    +0.000 A 
ATOM     42  CZ  TYR J   6      -6.888 -76.386  74.267  0.00  0.00    +0.000 A 
ATOM     43  OH  TYR J   6      -7.829 -75.873  73.413  0.00  0.00    +0.000 OA
ATOM     44  H   CYS J   1       4.134 -74.506  71.734  0.00  0.00    +0.000 HD
ATOM     45  H   CYS J   1       2.601 -74.647  71.100  0.00  0.00    +0.000 HD
ATOM     46  H   CYS J   1       3.037 -75.547  72.432  0.00  0.00    +0.000 HD
ATOM     47  H   CYS J   1       5.374 -72.715  71.414  0.00  0.00    +0.000 HD
ATOM     48  H   ILE J   2       0.752 -74.307  71.338  0.00  0.00    +0.000 HD
ATOM     49  H   ALA J   3       0.266 -76.702  72.548  0.00  0.00    +0.000 HD
ATOM     50  H   LEU J   4       1.514 -76.204  74.970  0.00  0.00    +0.000 HD
ATOM     51  H   GLY J   5      -0.131 -74.361  76.165  0.00  0.00    +0.000 HD
ATOM     52  H   TYR J   6      -2.486 -75.999  76.641  0.00  0.00    +0.000 HD
ATOM     53  H   TYR J   6      -7.646 -75.812  72.496  0.00  0.00    +0.000 HD
TER 
