REMARK  Name = /data/user_data/xianyang/t3-aimnet-affinity-balanced/L4/O75747/pocket.pdb
REMARK                            x       y       z     vdW  Elec       q    Type
REMARK                         _______ _______ _______ _____ _____    ______ ____
ATOM      1  N   PHE A   1      -6.131  10.379   3.644  0.00  0.00    +0.000 N 
ATOM      2  CA  PHE A   1      -7.091  10.168   2.578  0.00  0.00    +0.000 C 
ATOM      3  C   PHE A   1      -6.950  11.252   1.528  0.00  0.00    +0.000 C 
ATOM      4  O   PHE A   1      -6.827  12.432   1.847  0.00  0.00    +0.000 OA
ATOM      5  CB  PHE A   1      -8.525  10.175   3.112  0.00  0.00    +0.000 C 
ATOM      6  CG  PHE A   1      -8.864   9.013   3.992  0.00  0.00    +0.000 A 
ATOM      7  CD1 PHE A   1      -9.236   7.801   3.438  0.00  0.00    +0.000 A 
ATOM      8  CD2 PHE A   1      -8.821   9.132   5.369  0.00  0.00    +0.000 A 
ATOM      9  CE1 PHE A   1      -9.563   6.727   4.241  0.00  0.00    +0.000 A 
ATOM     10  CE2 PHE A   1      -9.143   8.063   6.182  0.00  0.00    +0.000 A 
ATOM     11  CZ  PHE A   1      -9.515   6.857   5.616  0.00  0.00    +0.000 A 
ATOM     12  H   PHE A   1      -5.187  10.369   3.258  0.00  0.00    +0.000 HD
ATOM     13  H   PHE A   1      -6.223   9.636   4.336  0.00  0.00    +0.000 HD
ATOM     14  H   PHE A   1      -6.308  11.280   4.087  0.00  0.00    +0.000 HD
TER 
REMARK  Name = /data/user_data/xianyang/t3-aimnet-affinity-balanced/L4/O75747/pocket.pdb
REMARK                            x       y       z     vdW  Elec       q    Type
REMARK                         _______ _______ _______ _____ _____    ______ ____
ATOM      1  N   SER B   1     -12.976  10.035  -0.491  0.00  0.00    +0.000 N 
ATOM      2  CA  SER B   1     -12.751   9.692   0.903  0.00  0.00    +0.000 C 
ATOM      3  C   SER B   1     -12.392   8.223   1.088  0.00  0.00    +0.000 C 
ATOM      4  O   SER B   1     -11.988   7.826   2.185  0.00  0.00    +0.000 OA
ATOM      5  CB  SER B   1     -13.987  10.027   1.737  0.00  0.00    +0.000 C 
ATOM      6  OG  SER B   1     -15.106   9.284   1.301  0.00  0.00    +0.000 OA
ATOM      7  N   ASN B   2     -12.530   7.427   0.049  0.00  0.00    +0.000 N 
ATOM      8  CA  ASN B   2     -12.202   6.013   0.106  0.00  0.00    +0.000 C 
ATOM      9  C   ASN B   2     -10.803   5.702  -0.403  0.00  0.00    +0.000 C 
ATOM     10  O   ASN B   2     -10.414   4.529  -0.442  0.00  0.00    +0.000 OA
ATOM     11  CB  ASN B   2     -13.221   5.201  -0.693  0.00  0.00    +0.000 C 
ATOM     12  CG  ASN B   2     -14.627   5.367  -0.178  0.00  0.00    +0.000 C 
ATOM     13  OD1 ASN B   2     -14.850   5.518   1.019  0.00  0.00    +0.000 OA
ATOM     14  ND2 ASN B   2     -15.592   5.342  -1.089  0.00  0.00    +0.000 N 
ATOM     15  H   SER B   1     -12.144   9.807  -1.036  0.00  0.00    +0.000 HD
ATOM     16  H   SER B   1     -13.170  11.033  -0.568  0.00  0.00    +0.000 HD
ATOM     17  H   SER B   1     -13.772   9.506  -0.847  0.00  0.00    +0.000 HD
ATOM     18  H   SER B   1     -15.297   9.501   0.375  0.00  0.00    +0.000 HD
ATOM     19  H   ASN B   2     -12.867   7.803  -0.796  0.00  0.00    +0.000 HD
ATOM     20  H   ASN B   2     -15.368   5.218  -2.040  0.00  0.00    +0.000 HD
ATOM     21  H   ASN B   2     -16.531   5.447  -0.814  0.00  0.00    +0.000 HD
TER 
REMARK  Name = /data/user_data/xianyang/t3-aimnet-affinity-balanced/L4/O75747/pocket.pdb
REMARK                            x       y       z     vdW  Elec       q    Type
REMARK                         _______ _______ _______ _____ _____    ______ ____
ATOM      1  N   TYR C   1      -6.774   6.013   0.027  0.00  0.00    +0.000 N 
ATOM      2  CA  TYR C   1      -5.686   6.279   0.952  0.00  0.00    +0.000 C 
ATOM      3  C   TYR C   1      -4.477   6.796   0.193  0.00  0.00    +0.000 C 
ATOM      4  O   TYR C   1      -4.089   6.235  -0.832  0.00  0.00    +0.000 OA
ATOM      5  CB  TYR C   1      -5.292   5.016   1.715  0.00  0.00    +0.000 C 
ATOM      6  CG  TYR C   1      -6.386   4.460   2.585  0.00  0.00    +0.000 A 
ATOM      7  CD2 TYR C   1      -6.576   4.926   3.880  0.00  0.00    +0.000 A 
ATOM      8  CD1 TYR C   1      -7.230   3.458   2.110  0.00  0.00    +0.000 A 
ATOM      9  CE2 TYR C   1      -7.578   4.413   4.687  0.00  0.00    +0.000 A 
ATOM     10  CE1 TYR C   1      -8.235   2.942   2.914  0.00  0.00    +0.000 A 
ATOM     11  CZ  TYR C   1      -8.405   3.420   4.200  0.00  0.00    +0.000 A 
ATOM     12  OH  TYR C   1      -9.392   2.909   4.993  0.00  0.00    +0.000 OA
ATOM     13  H   TYR C   1      -7.017   6.871  -0.468  0.00  0.00    +0.000 HD
ATOM     14  H   TYR C   1      -7.586   5.678   0.545  0.00  0.00    +0.000 HD
ATOM     15  H   TYR C   1      -6.483   5.303  -0.645  0.00  0.00    +0.000 HD
ATOM     16  H   TYR C   1      -9.955   2.235   4.665  0.00  0.00    +0.000 HD
TER 
REMARK  Name = /data/user_data/xianyang/t3-aimnet-affinity-balanced/L4/O75747/pocket.pdb
REMARK                            x       y       z     vdW  Elec       q    Type
REMARK                         _______ _______ _______ _____ _____    ______ ____
ATOM      1  N   SER D   1      -7.719   2.429  -2.890  0.00  0.00    +0.000 N 
ATOM      2  CA  SER D   1      -8.952   2.239  -2.156  0.00  0.00    +0.000 C 
ATOM      3  C   SER D   1      -8.881   0.955  -1.341  0.00  0.00    +0.000 C 
ATOM      4  O   SER D   1      -8.019   0.100  -1.556  0.00  0.00    +0.000 OA
ATOM      5  CB  SER D   1     -10.145   2.188  -3.110  0.00  0.00    +0.000 C 
ATOM      6  OG  SER D   1     -10.086   1.026  -3.917  0.00  0.00    +0.000 OA
ATOM      7  N   PHE D   2      -9.801   0.822  -0.406  0.00  0.00    +0.000 N 
ATOM      8  CA  PHE D   2      -9.867  -0.414   0.358  0.00  0.00    +0.000 C 
ATOM      9  C   PHE D   2     -10.201  -1.597  -0.541  0.00  0.00    +0.000 C 
ATOM     10  O   PHE D   2      -9.712  -2.709  -0.329  0.00  0.00    +0.000 OA
ATOM     11  CB  PHE D   2     -10.886  -0.294   1.491  0.00  0.00    +0.000 C 
ATOM     12  CG  PHE D   2     -10.841  -1.441   2.459  0.00  0.00    +0.000 A 
ATOM     13  CD2 PHE D   2      -9.810  -1.531   3.388  0.00  0.00    +0.000 A 
ATOM     14  CD1 PHE D   2     -11.813  -2.426   2.447  0.00  0.00    +0.000 A 
ATOM     15  CE2 PHE D   2      -9.756  -2.584   4.286  0.00  0.00    +0.000 A 
ATOM     16  CE1 PHE D   2     -11.763  -3.482   3.346  0.00  0.00    +0.000 A 
ATOM     17  CZ  PHE D   2     -10.736  -3.557   4.264  0.00  0.00    +0.000 A 
ATOM     18  N   GLU D   3     -11.023  -1.350  -1.548  0.00  0.00    +0.000 N 
ATOM     19  CA  GLU D   3     -11.335  -2.413  -2.491  0.00  0.00    +0.000 C 
ATOM     20  C   GLU D   3     -10.087  -2.878  -3.222  0.00  0.00    +0.000 C 
ATOM     21  O   GLU D   3      -9.923  -4.070  -3.499  0.00  0.00    +0.000 OA
ATOM     22  CB  GLU D   3     -12.400  -1.941  -3.483  0.00  0.00    +0.000 C 
ATOM     23  CG  GLU D   3     -12.927  -3.032  -4.404  0.00  0.00    +0.000 C 
ATOM     24  CD  GLU D   3     -12.051  -3.288  -5.610  0.00  0.00    +0.000 C 
ATOM     25  OE2 GLU D   3     -11.353  -2.345  -6.045  0.00  0.00    +0.000 OA
ATOM     26  OE1 GLU D   3     -12.058  -4.430  -6.119  0.00  0.00    +0.000 OA
ATOM     27  H   SER D   1      -7.776   3.291  -3.433  0.00  0.00    +0.000 HD
ATOM     28  H   SER D   1      -7.573   1.640  -3.520  0.00  0.00    +0.000 HD
ATOM     29  H   SER D   1      -6.939   2.490  -2.235  0.00  0.00    +0.000 HD
ATOM     30  H   SER D   1     -10.109   0.238  -3.352  0.00  0.00    +0.000 HD
ATOM     31  H   PHE D   2     -10.437   1.552  -0.227  0.00  0.00    +0.000 HD
ATOM     32  H   GLU D   3     -11.420  -0.456  -1.658  0.00  0.00    +0.000 HD
TER 
REMARK  Name = /data/user_data/xianyang/t3-aimnet-affinity-balanced/L4/O75747/pocket.pdb
REMARK                            x       y       z     vdW  Elec       q    Type
REMARK                         _______ _______ _______ _____ _____    ______ ____
ATOM      1  N   SER E   1      -8.267  -5.169  -1.007  0.00  0.00    +0.000 N 
ATOM      2  CA  SER E   1      -8.940  -6.460  -1.001  0.00  0.00    +0.000 C 
ATOM      3  C   SER E   1      -8.618  -7.253  -2.262  0.00  0.00    +0.000 C 
ATOM      4  O   SER E   1      -8.382  -8.466  -2.205  0.00  0.00    +0.000 OA
ATOM      5  CB  SER E   1     -10.450  -6.262  -0.861  0.00  0.00    +0.000 C 
ATOM      6  OG  SER E   1     -11.127  -7.504  -0.902  0.00  0.00    +0.000 OA
ATOM      7  H   SER E   1      -7.261  -5.310  -1.101  0.00  0.00    +0.000 HD
ATOM      8  H   SER E   1      -8.462  -4.680  -0.133  0.00  0.00    +0.000 HD
ATOM      9  H   SER E   1      -8.607  -4.612  -1.791  0.00  0.00    +0.000 HD
ATOM     10  H   SER E   1     -10.955  -7.938  -1.752  0.00  0.00    +0.000 HD
TER 
REMARK  Name = /data/user_data/xianyang/t3-aimnet-affinity-balanced/L4/O75747/pocket.pdb
REMARK                            x       y       z     vdW  Elec       q    Type
REMARK                         _______ _______ _______ _____ _____    ______ ____
ATOM      1  N   PHE F   1      -6.302 -10.535   5.884  0.00  0.00    +0.000 N 
ATOM      2  CA  PHE F   1      -6.784  -9.225   5.487  0.00  0.00    +0.000 C 
ATOM      3  C   PHE F   1      -7.572  -8.603   6.632  0.00  0.00    +0.000 C 
ATOM      4  O   PHE F   1      -8.219  -9.318   7.401  0.00  0.00    +0.000 OA
ATOM      5  CB  PHE F   1      -7.655  -9.361   4.240  0.00  0.00    +0.000 C 
ATOM      6  CG  PHE F   1      -7.958  -8.060   3.565  0.00  0.00    +0.000 A 
ATOM      7  CD1 PHE F   1      -6.947  -7.341   2.946  0.00  0.00    +0.000 A 
ATOM      8  CD2 PHE F   1      -9.244  -7.557   3.553  0.00  0.00    +0.000 A 
ATOM      9  CE1 PHE F   1      -7.220  -6.136   2.319  0.00  0.00    +0.000 A 
ATOM     10  CE2 PHE F   1      -9.522  -6.353   2.926  0.00  0.00    +0.000 A 
ATOM     11  CZ  PHE F   1      -8.508  -5.642   2.305  0.00  0.00    +0.000 A 
ATOM     12  N   PRO F   2      -7.532  -7.286   6.782  0.00  0.00    +0.000 N 
ATOM     13  CA  PRO F   2      -8.317  -6.640   7.835  0.00  0.00    +0.000 C 
ATOM     14  C   PRO F   2      -9.768  -7.103   7.815  0.00  0.00    +0.000 C 
ATOM     15  O   PRO F   2     -10.398  -7.170   6.758  0.00  0.00    +0.000 OA
ATOM     16  CB  PRO F   2      -8.203  -5.157   7.507  0.00  0.00    +0.000 C 
ATOM     17  CG  PRO F   2      -6.874  -5.036   6.852  0.00  0.00    +0.000 C 
ATOM     18  CD  PRO F   2      -6.698  -6.309   6.063  0.00  0.00    +0.000 C 
ATOM     19  N   HIS F   3     -10.289  -7.422   8.970  0.00  0.00    +0.000 N 
ATOM     20  CA  HIS F   3     -11.522  -8.180   9.079  0.00  0.00    +0.000 C 
ATOM     21  C   HIS F   3     -12.744  -7.374   9.481  0.00  0.00    +0.000 C 
ATOM     22  O   HIS F   3     -13.848  -7.920   9.476  0.00  0.00    +0.000 OA
ATOM     23  CB  HIS F   3     -11.334  -9.338  10.069  0.00  0.00    +0.000 C 
ATOM     24  CG  HIS F   3     -10.784  -8.892  11.385  0.00  0.00    +0.000 A 
ATOM     25  ND1 HIS F   3     -11.580  -8.466  12.425  0.00  0.00    +0.000 N 
ATOM     26  CD2 HIS F   3      -9.505  -8.816  11.826  0.00  0.00    +0.000 A 
ATOM     27  CE1 HIS F   3     -10.806  -8.140  13.448  0.00  0.00    +0.000 A 
ATOM     28  NE2 HIS F   3      -9.546  -8.341  13.113  0.00  0.00    +0.000 NA
ATOM     29  N   TRP F   4     -12.577  -6.105   9.839  0.00  0.00    +0.000 N 
ATOM     30  CA  TRP F   4     -13.742  -5.299  10.185  0.00  0.00    +0.000 C 
ATOM     31  C   TRP F   4     -14.263  -4.531   8.974  0.00  0.00    +0.000 C 
ATOM     32  O   TRP F   4     -14.563  -3.337   9.052  0.00  0.00    +0.000 OA
ATOM     33  CB  TRP F   4     -13.466  -4.356  11.360  0.00  0.00    +0.000 C 
ATOM     34  CG  TRP F   4     -12.088  -3.794  11.438  0.00  0.00    +0.000 C 
ATOM     35  CD1 TRP F   4     -11.633  -2.624  10.894  0.00  0.00    +0.000 C 
ATOM     36  CD2 TRP F   4     -10.981  -4.368  12.124  0.00  0.00    +0.000 C 
ATOM     37  NE1 TRP F   4     -10.314  -2.453  11.194  0.00  0.00    +0.000 NA
ATOM     38  CE2 TRP F   4      -9.883  -3.499  11.950  0.00  0.00    +0.000 C 
ATOM     39  CE3 TRP F   4     -10.805  -5.537  12.874  0.00  0.00    +0.000 C 
ATOM     40  CZ2 TRP F   4      -8.628  -3.763  12.498  0.00  0.00    +0.000 C 
ATOM     41  CZ3 TRP F   4      -9.563  -5.801  13.418  0.00  0.00    +0.000 C 
ATOM     42  CH2 TRP F   4      -8.496  -4.925  13.230  0.00  0.00    +0.000 C 
ATOM     43  N   TRP F   5     -14.415  -5.251   7.884  0.00  0.00    +0.000 N 
ATOM     44  CA  TRP F   5     -14.973  -4.697   6.666  0.00  0.00    +0.000 C 
ATOM     45  C   TRP F   5     -16.419  -4.269   6.829  0.00  0.00    +0.000 C 
ATOM     46  O   TRP F   5     -16.940  -3.501   6.014  0.00  0.00    +0.000 OA
ATOM     47  CB  TRP F   5     -14.879  -5.723   5.544  0.00  0.00    +0.000 C 
ATOM     48  CG  TRP F   5     -15.399  -7.071   5.944  0.00  0.00    +0.000 C 
ATOM     49  CD1 TRP F   5     -14.673  -8.116   6.452  0.00  0.00    +0.000 C 
ATOM     50  CD2 TRP F   5     -16.753  -7.527   5.880  0.00  0.00    +0.000 A 
ATOM     51  NE1 TRP F   5     -15.491  -9.184   6.713  0.00  0.00    +0.000 NA
ATOM     52  CE2 TRP F   5     -16.771  -8.852   6.366  0.00  0.00    +0.000 A 
ATOM     53  CE3 TRP F   5     -17.952  -6.943   5.458  0.00  0.00    +0.000 A 
ATOM     54  CZ2 TRP F   5     -17.942  -9.604   6.436  0.00  0.00    +0.000 A 
ATOM     55  CZ3 TRP F   5     -19.115  -7.699   5.529  0.00  0.00    +0.000 A 
ATOM     56  CH2 TRP F   5     -19.109  -9.003   6.009  0.00  0.00    +0.000 A 
ATOM     57  N   HIS F   6     -17.085  -4.759   7.872  0.00  0.00    +0.000 N 
ATOM     58  CA  HIS F   6     -18.484  -4.446   8.099  0.00  0.00    +0.000 C 
ATOM     59  C   HIS F   6     -18.699  -3.050   8.661  0.00  0.00    +0.000 C 
ATOM     60  O   HIS F   6     -19.829  -2.556   8.665  0.00  0.00    +0.000 OA
ATOM     61  CB  HIS F   6     -19.100  -5.475   9.051  0.00  0.00    +0.000 C 
ATOM     62  CG  HIS F   6     -18.397  -5.532  10.379  0.00  0.00    +0.000 C 
ATOM     63  ND1 HIS F   6     -17.217  -6.213  10.567  0.00  0.00    +0.000 NA
ATOM     64  CD2 HIS F   6     -18.724  -5.003  11.580  0.00  0.00    +0.000 C 
ATOM     65  CE1 HIS F   6     -16.846  -6.091  11.824  0.00  0.00    +0.000 C 
ATOM     66  NE2 HIS F   6     -17.740  -5.366  12.462  0.00  0.00    +0.000 NA
ATOM     67  N   LEU F   7     -17.655  -2.402   9.150  0.00  0.00    +0.000 N 
ATOM     68  CA  LEU F   7     -17.794  -1.068   9.709  0.00  0.00    +0.000 C 
ATOM     69  C   LEU F   7     -18.081  -0.054   8.611  0.00  0.00    +0.000 C 
ATOM     70  O   LEU F   7     -17.549  -0.162   7.505  0.00  0.00    +0.000 OA
ATOM     71  CB  LEU F   7     -16.528  -0.661  10.463  0.00  0.00    +0.000 C 
ATOM     72  CG  LEU F   7     -16.188  -1.479  11.703  0.00  0.00    +0.000 C 
ATOM     73  CD1 LEU F   7     -14.867  -1.014  12.295  0.00  0.00    +0.000 C 
ATOM     74  CD2 LEU F   7     -17.303  -1.387  12.735  0.00  0.00    +0.000 C 
ATOM     75  N   PRO F   8     -18.921   0.946   8.906  0.00  0.00    +0.000 N 
ATOM     76  CA  PRO F   8     -19.134   2.002   7.924  0.00  0.00    +0.000 C 
ATOM     77  C   PRO F   8     -17.824   2.691   7.577  0.00  0.00    +0.000 C 
ATOM     78  O   PRO F   8     -16.958   2.877   8.432  0.00  0.00    +0.000 OA
ATOM     79  CB  PRO F   8     -20.094   2.962   8.637  0.00  0.00    +0.000 C 
ATOM     80  CG  PRO F   8     -20.768   2.129   9.675  0.00  0.00    +0.000 C 
ATOM     81  CD  PRO F   8     -19.759   1.108  10.103  0.00  0.00    +0.000 C 
ATOM     82  N   PHE F   9     -17.697   3.078   6.319  0.00  0.00    +0.000 N 
ATOM     83  CA  PHE F   9     -16.446   3.665   5.864  0.00  0.00    +0.000 C 
ATOM     84  C   PHE F   9     -16.160   5.015   6.506  0.00  0.00    +0.000 C 
ATOM     85  O   PHE F   9     -15.017   5.479   6.492  0.00  0.00    +0.000 OA
ATOM     86  CB  PHE F   9     -16.447   3.789   4.337  0.00  0.00    +0.000 C 
ATOM     87  CG  PHE F   9     -17.372   4.853   3.813  0.00  0.00    +0.000 A 
ATOM     88  CD2 PHE F   9     -18.724   4.598   3.644  0.00  0.00    +0.000 A 
ATOM     89  CD1 PHE F   9     -16.885   6.108   3.473  0.00  0.00    +0.000 A 
ATOM     90  CE2 PHE F   9     -19.575   5.569   3.154  0.00  0.00    +0.000 A 
ATOM     91  CE1 PHE F   9     -17.730   7.084   2.982  0.00  0.00    +0.000 A 
ATOM     92  CZ  PHE F   9     -19.075   6.813   2.824  0.00  0.00    +0.000 A 
ATOM     93  H   PHE F   1      -5.774 -10.950   5.116  0.00  0.00    +0.000 HD
ATOM     94  H   PHE F   1      -7.095 -11.134   6.115  0.00  0.00    +0.000 HD
ATOM     95  H   PHE F   1      -5.698 -10.442   6.700  0.00  0.00    +0.000 HD
ATOM     96  H   HIS F   3      -9.830  -7.139   9.794  0.00  0.00    +0.000 HD
ATOM     97  H   HIS F   3     -12.563  -8.413  12.410  0.00  0.00    +0.000 HD
ATOM     98  H   TRP F   4     -11.675  -5.713   9.870  0.00  0.00    +0.000 HD
ATOM     99  H   TRP F   5     -14.141  -6.197   7.896  0.00  0.00    +0.000 HD
ATOM    100  H   HIS F   6     -16.617  -5.349   8.506  0.00  0.00    +0.000 HD
ATOM    101  H   LEU F   7     -16.769  -2.831   9.135  0.00  0.00    +0.000 HD
ATOM    102  H   PHE F   9     -18.448   2.969   5.691  0.00  0.00    +0.000 HD
TER 
REMARK  Name = /data/user_data/xianyang/t3-aimnet-affinity-balanced/L4/O75747/pocket.pdb
REMARK                            x       y       z     vdW  Elec       q    Type
REMARK                         _______ _______ _______ _____ _____    ______ ____
ATOM      1  N   ARG G   1      -8.502   3.832  12.897  0.00  0.00    +0.000 N 
ATOM      2  CA  ARG G   1      -8.452   2.380  12.901  0.00  0.00    +0.000 C 
ATOM      3  C   ARG G   1      -8.168   1.836  11.505  0.00  0.00    +0.000 C 
ATOM      4  O   ARG G   1      -7.438   0.856  11.351  0.00  0.00    +0.000 OA
ATOM      5  CB  ARG G   1      -9.756   1.801  13.445  0.00  0.00    +0.000 C 
ATOM      6  CG  ARG G   1      -9.662   0.340  13.821  0.00  0.00    +0.000 C 
ATOM      7  CD  ARG G   1     -10.977  -0.170  14.387  0.00  0.00    +0.000 C 
ATOM      8  NE  ARG G   1     -10.781  -1.372  15.186  0.00  0.00    +0.000 N 
ATOM      9  CZ  ARG G   1     -10.629  -1.384  16.502  0.00  0.00    +0.000 C 
ATOM     10  NH2 ARG G   1     -10.664  -0.245  17.178  0.00  0.00    +0.000 N 
ATOM     11  NH1 ARG G   1     -10.451  -2.532  17.137  0.00  0.00    +0.000 N 
ATOM     12  N   ARG G   2      -8.742   2.460  10.494  0.00  0.00    +0.000 N 
ATOM     13  CA  ARG G   2      -8.476   2.028   9.130  0.00  0.00    +0.000 C 
ATOM     14  C   ARG G   2      -7.031   2.298   8.738  0.00  0.00    +0.000 C 
ATOM     15  O   ARG G   2      -6.432   1.506   8.001  0.00  0.00    +0.000 OA
ATOM     16  CB  ARG G   2      -9.443   2.713   8.161  0.00  0.00    +0.000 C 
ATOM     17  CG  ARG G   2     -10.897   2.335   8.386  0.00  0.00    +0.000 C 
ATOM     18  CD  ARG G   2     -11.756   2.726   7.207  0.00  0.00    +0.000 C 
ATOM     19  NE  ARG G   2     -11.829   4.171   7.034  0.00  0.00    +0.000 N 
ATOM     20  CZ  ARG G   2     -12.773   4.946   7.549  0.00  0.00    +0.000 C 
ATOM     21  NH2 ARG G   2     -13.747   4.417   8.276  0.00  0.00    +0.000 N 
ATOM     22  NH1 ARG G   2     -12.742   6.248   7.329  0.00  0.00    +0.000 N 
ATOM     23  H   ARG G   1      -7.624   4.201  12.531  0.00  0.00    +0.000 HD
ATOM     24  H   ARG G   1      -8.643   4.170  13.849  0.00  0.00    +0.000 HD
ATOM     25  H   ARG G   1      -9.274   4.144  12.308  0.00  0.00    +0.000 HD
ATOM     26  H   ARG G   1     -10.760  -2.236  14.715  0.00  0.00    +0.000 HD
ATOM     27  H   ARG G   1     -10.797   0.606  16.702  0.00  0.00    +0.000 HD
ATOM     28  H   ARG G   1     -10.557  -0.250  18.157  0.00  0.00    +0.000 HD
ATOM     29  H   ARG G   1     -10.426  -3.376  16.631  0.00  0.00    +0.000 HD
ATOM     30  H   ARG G   1     -10.344  -2.542  18.116  0.00  0.00    +0.000 HD
ATOM     31  H   ARG G   2      -9.349   3.217  10.662  0.00  0.00    +0.000 HD
ATOM     32  H   ARG G   2     -11.127   4.603   6.496  0.00  0.00    +0.000 HD
ATOM     33  H   ARG G   2     -13.768   3.446   8.439  0.00  0.00    +0.000 HD
ATOM     34  H   ARG G   2     -14.449   4.995   8.653  0.00  0.00    +0.000 HD
ATOM     35  H   ARG G   2     -12.018   6.639   6.789  0.00  0.00    +0.000 HD
ATOM     36  H   ARG G   2     -13.443   6.828   7.705  0.00  0.00    +0.000 HD
TER 
REMARK  Name = /data/user_data/xianyang/t3-aimnet-affinity-balanced/L4/O75747/pocket.pdb
REMARK                            x       y       z     vdW  Elec       q    Type
REMARK                         _______ _______ _______ _____ _____    ______ ____
ATOM      1  N   ASP H   1      -4.991  -0.656  10.634  0.00  0.00    +0.000 N 
ATOM      2  CA  ASP H   1      -5.057  -2.025  10.145  0.00  0.00    +0.000 C 
ATOM      3  C   ASP H   1      -4.466  -2.166   8.749  0.00  0.00    +0.000 C 
ATOM      4  O   ASP H   1      -3.867  -3.200   8.433  0.00  0.00    +0.000 OA
ATOM      5  CB  ASP H   1      -6.489  -2.579  10.223  0.00  0.00    +0.000 C 
ATOM      6  CG  ASP H   1      -7.509  -1.790   9.434  0.00  0.00    +0.000 C 
ATOM      7  OD1 ASP H   1      -7.122  -0.971   8.578  0.00  0.00    +0.000 OA
ATOM      8  OD2 ASP H   1      -8.718  -1.995   9.679  0.00  0.00    +0.000 OA
ATOM      9  N   LEU H   2      -4.597  -1.144   7.919  0.00  0.00    +0.000 N 
ATOM     10  CA  LEU H   2      -3.996  -1.212   6.596  0.00  0.00    +0.000 C 
ATOM     11  C   LEU H   2      -2.487  -1.028   6.655  0.00  0.00    +0.000 C 
ATOM     12  O   LEU H   2      -1.759  -1.659   5.886  0.00  0.00    +0.000 OA
ATOM     13  CB  LEU H   2      -4.636  -0.189   5.660  0.00  0.00    +0.000 C 
ATOM     14  CG  LEU H   2      -6.042  -0.548   5.188  0.00  0.00    +0.000 C 
ATOM     15  CD1 LEU H   2      -6.587   0.526   4.260  0.00  0.00    +0.000 C 
ATOM     16  CD2 LEU H   2      -6.049  -1.906   4.489  0.00  0.00    +0.000 C 
ATOM     17  H   ASP H   1      -4.031  -0.318  10.569  0.00  0.00    +0.000 HD
ATOM     18  H   ASP H   1      -5.297  -0.627  11.607  0.00  0.00    +0.000 HD
ATOM     19  H   ASP H   1      -5.599  -0.063  10.069  0.00  0.00    +0.000 HD
ATOM     20  H   LEU H   2      -5.098  -0.343   8.195  0.00  0.00    +0.000 HD
TER 
