REMARK  Name = /data/user_data/xianyang/t3-aimnet-affinity-balanced/L3/Q00959/pocket.pdb
REMARK                            x       y       z     vdW  Elec       q    Type
REMARK                         _______ _______ _______ _____ _____    ______ ____
ATOM      1  N   GLU A   1      11.833  15.485  36.934  0.00  0.00    +0.000 N 
ATOM      2  CA  GLU A   1      13.276  15.732  36.970  0.00  0.00    +0.000 C 
ATOM      3  C   GLU A   1      13.869  14.806  38.032  0.00  0.00    +0.000 C 
ATOM      4  O   GLU A   1      13.830  15.108  39.223  0.00  0.00    +0.000 OA
ATOM      5  CB  GLU A   1      13.612  17.193  37.308  0.00  0.00    +0.000 C 
ATOM      6  CG  GLU A   1      15.126  17.413  37.487  0.00  0.00    +0.000 C 
ATOM      7  CD  GLU A   1      15.617  18.772  37.013  0.00  0.00    +0.000 C 
ATOM      8  OE2 GLU A   1      15.166  19.801  37.556  0.00  0.00    +0.000 OA
ATOM      9  OE1 GLU A   1      16.471  18.806  36.095  0.00  0.00    +0.000 OA
ATOM     10  H   GLU A   1      11.402  16.088  36.233  0.00  0.00    +0.000 HD
ATOM     11  H   GLU A   1      11.431  15.686  37.849  0.00  0.00    +0.000 HD
ATOM     12  H   GLU A   1      11.661  14.509  36.694  0.00  0.00    +0.000 HD
TER 
REMARK  Name = /data/user_data/xianyang/t3-aimnet-affinity-balanced/L3/Q00959/pocket.pdb
REMARK                            x       y       z     vdW  Elec       q    Type
REMARK                         _______ _______ _______ _____ _____    ______ ____
ATOM      1  N   HIS B   1      10.149  24.488  34.613  0.00  0.00    +0.000 N 
ATOM      2  CA  HIS B   1      10.168  25.038  35.963  0.00  0.00    +0.000 C 
ATOM      3  C   HIS B   1       9.478  26.394  36.032  0.00  0.00    +0.000 C 
ATOM      4  O   HIS B   1       8.684  26.648  36.938  0.00  0.00    +0.000 OA
ATOM      5  CB  HIS B   1      11.615  25.149  36.446  0.00  0.00    +0.000 C 
ATOM      6  CG  HIS B   1      12.382  23.871  36.316  0.00  0.00    +0.000 A 
ATOM      7  ND1 HIS B   1      12.590  23.013  37.375  0.00  0.00    +0.000 N 
ATOM      8  CD2 HIS B   1      12.948  23.281  35.237  0.00  0.00    +0.000 A 
ATOM      9  CE1 HIS B   1      13.253  21.951  36.954  0.00  0.00    +0.000 A 
ATOM     10  NE2 HIS B   1      13.482  22.088  35.661  0.00  0.00    +0.000 NA
ATOM     11  N   GLY B   2       9.777  27.266  35.075  0.00  0.00    +0.000 N 
ATOM     12  CA  GLY B   2       9.149  28.573  35.077  0.00  0.00    +0.000 C 
ATOM     13  C   GLY B   2       9.946  29.665  34.398  0.00  0.00    +0.000 C 
ATOM     14  O   GLY B   2      11.111  29.891  34.717  0.00  0.00    +0.000 OA
ATOM     15  H   HIS B   1       9.184  24.413  34.290  0.00  0.00    +0.000 HD
ATOM     16  H   HIS B   1      10.579  23.563  34.617  0.00  0.00    +0.000 HD
ATOM     17  H   HIS B   1      10.670  25.103  33.988  0.00  0.00    +0.000 HD
ATOM     18  H   HIS B   1      12.291  23.168  38.300  0.00  0.00    +0.000 HD
ATOM     19  H   GLY B   2      10.420  27.026  34.369  0.00  0.00    +0.000 HD
TER 
REMARK  Name = /data/user_data/xianyang/t3-aimnet-affinity-balanced/L3/Q00959/pocket.pdb
REMARK                            x       y       z     vdW  Elec       q    Type
REMARK                         _______ _______ _______ _____ _____    ______ ____
ATOM      1  N   MET C   1       5.857  25.596  36.137  0.00  0.00    +0.000 N 
ATOM      2  CA  MET C   1       5.272  25.482  37.471  0.00  0.00    +0.000 C 
ATOM      3  C   MET C   1       4.947  26.849  38.062  0.00  0.00    +0.000 C 
ATOM      4  O   MET C   1       3.894  27.028  38.673  0.00  0.00    +0.000 OA
ATOM      5  CB  MET C   1       6.213  24.723  38.416  0.00  0.00    +0.000 C 
ATOM      6  CG  MET C   1       6.370  23.234  38.094  0.00  0.00    +0.000 C 
ATOM      7  SD  MET C   1       7.293  22.300  39.360  0.00  0.00    +0.000 S 
ATOM      8  CE  MET C   1       8.980  22.699  38.903  0.00  0.00    +0.000 C 
ATOM      9  H   MET C   1       5.216  26.103  35.527  0.00  0.00    +0.000 HD
ATOM     10  H   MET C   1       6.022  24.664  35.757  0.00  0.00    +0.000 HD
ATOM     11  H   MET C   1       6.741  26.101  36.196  0.00  0.00    +0.000 HD
TER 
REMARK  Name = /data/user_data/xianyang/t3-aimnet-affinity-balanced/L3/Q00959/pocket.pdb
REMARK                            x       y       z     vdW  Elec       q    Type
REMARK                         _______ _______ _______ _____ _____    ______ ____
ATOM      1  N   SER D   1      11.881  20.239  41.748  0.00  0.00    +0.000 N 
ATOM      2  CA  SER D   1      13.217  20.828  41.737  0.00  0.00    +0.000 C 
ATOM      3  C   SER D   1      13.106  22.285  41.302  0.00  0.00    +0.000 C 
ATOM      4  O   SER D   1      13.718  22.704  40.321  0.00  0.00    +0.000 OA
ATOM      5  CB  SER D   1      14.102  20.048  40.765  0.00  0.00    +0.000 C 
ATOM      6  OG  SER D   1      13.391  19.742  39.576  0.00  0.00    +0.000 OA
ATOM      7  N   LEU D   2      12.330  23.052  42.062  0.00  0.00    +0.000 N 
ATOM      8  CA  LEU D   2      12.071  24.455  41.756  0.00  0.00    +0.000 C 
ATOM      9  C   LEU D   2      13.006  25.402  42.496  0.00  0.00    +0.000 C 
ATOM     10  O   LEU D   2      12.948  25.525  43.718  0.00  0.00    +0.000 OA
ATOM     11  CB  LEU D   2      10.616  24.777  42.102  0.00  0.00    +0.000 C 
ATOM     12  CG  LEU D   2      10.037  26.130  41.690  0.00  0.00    +0.000 C 
ATOM     13  CD1 LEU D   2      10.151  26.322  40.179  0.00  0.00    +0.000 C 
ATOM     14  CD2 LEU D   2       8.575  26.184  42.120  0.00  0.00    +0.000 C 
ATOM     15  N   THR D   3      13.855  26.081  41.734  0.00  0.00    +0.000 N 
ATOM     16  CA  THR D   3      14.831  27.010  42.283  0.00  0.00    +0.000 C 
ATOM     17  C   THR D   3      14.254  28.364  42.681  0.00  0.00    +0.000 C 
ATOM     18  O   THR D   3      13.497  28.984  41.934  0.00  0.00    +0.000 OA
ATOM     19  CB  THR D   3      15.968  27.240  41.273  0.00  0.00    +0.000 C 
ATOM     20  OG1 THR D   3      16.611  25.992  41.000  0.00  0.00    +0.000 OA
ATOM     21  CG2 THR D   3      16.992  28.229  41.820  0.00  0.00    +0.000 C 
ATOM     22  N   ILE D   4      14.631  28.812  43.870  0.00  0.00    +0.000 N 
ATOM     23  CA  ILE D   4      14.200  30.099  44.390  0.00  0.00    +0.000 C 
ATOM     24  C   ILE D   4      15.101  31.194  43.806  0.00  0.00    +0.000 C 
ATOM     25  O   ILE D   4      16.325  31.097  43.890  0.00  0.00    +0.000 OA
ATOM     26  CB  ILE D   4      14.354  30.152  45.935  0.00  0.00    +0.000 C 
ATOM     27  CG1 ILE D   4      13.501  29.066  46.602  0.00  0.00    +0.000 C 
ATOM     28  CG2 ILE D   4      13.989  31.538  46.440  0.00  0.00    +0.000 C 
ATOM     29  CD1 ILE D   4      13.771  28.907  48.102  0.00  0.00    +0.000 C 
ATOM     30  N   ASN D   5      14.507  32.212  43.188  0.00  0.00    +0.000 N 
ATOM     31  CA  ASN D   5      15.290  33.336  42.683  0.00  0.00    +0.000 C 
ATOM     32  C   ASN D   5      14.484  34.622  42.845  0.00  0.00    +0.000 C 
ATOM     33  O   ASN D   5      13.280  34.578  43.117  0.00  0.00    +0.000 OA
ATOM     34  CB  ASN D   5      15.783  33.104  41.232  0.00  0.00    +0.000 C 
ATOM     35  CG  ASN D   5      14.673  33.107  40.191  0.00  0.00    +0.000 C 
ATOM     36  OD1 ASN D   5      14.752  32.381  39.194  0.00  0.00    +0.000 OA
ATOM     37  ND2 ASN D   5      13.662  33.935  40.390  0.00  0.00    +0.000 N 
ATOM     38  H   SER D   1      11.942  19.263  42.038  0.00  0.00    +0.000 HD
ATOM     39  H   SER D   1      11.479  20.291  40.812  0.00  0.00    +0.000 HD
ATOM     40  H   SER D   1      11.289  20.751  42.402  0.00  0.00    +0.000 HD
ATOM     41  H   SER D   1      13.113  20.565  39.145  0.00  0.00    +0.000 HD
ATOM     42  H   LEU D   2      11.914  22.658  42.862  0.00  0.00    +0.000 HD
ATOM     43  H   THR D   3      13.823  25.951  40.759  0.00  0.00    +0.000 HD
ATOM     44  H   THR D   3      16.983  25.634  41.821  0.00  0.00    +0.000 HD
ATOM     45  H   ILE D   4      15.225  28.253  44.421  0.00  0.00    +0.000 HD
ATOM     46  H   ASN D   5      13.530  32.207  43.070  0.00  0.00    +0.000 HD
ATOM     47  H   ASN D   5      12.921  33.971  39.743  0.00  0.00    +0.000 HD
ATOM     48  H   ASN D   5      13.650  34.515  41.185  0.00  0.00    +0.000 HD
TER 
REMARK  Name = /data/user_data/xianyang/t3-aimnet-affinity-balanced/L3/Q00959/pocket.pdb
REMARK                            x       y       z     vdW  Elec       q    Type
REMARK                         _______ _______ _______ _____ _____    ______ ____
ATOM      1  N   ARG E   1      11.251  35.225  40.522  0.00  0.00    +0.000 N 
ATOM      2  CA  ARG E   1      10.124  34.394  40.917  0.00  0.00    +0.000 C 
ATOM      3  C   ARG E   1       9.519  34.821  42.248  0.00  0.00    +0.000 C 
ATOM      4  O   ARG E   1       8.302  34.767  42.426  0.00  0.00    +0.000 OA
ATOM      5  CB  ARG E   1      10.560  32.933  40.980  0.00  0.00    +0.000 C 
ATOM      6  CG  ARG E   1      10.908  32.381  39.617  0.00  0.00    +0.000 C 
ATOM      7  CD  ARG E   1      11.577  31.024  39.709  0.00  0.00    +0.000 C 
ATOM      8  NE  ARG E   1      11.853  30.483  38.382  0.00  0.00    +0.000 N 
ATOM      9  CZ  ARG E   1      12.465  29.325  38.163  0.00  0.00    +0.000 C 
ATOM     10  NH2 ARG E   1      12.869  28.582  39.187  0.00  0.00    +0.000 N 
ATOM     11  NH1 ARG E   1      12.666  28.902  36.922  0.00  0.00    +0.000 N 
ATOM     12  H   ARG E   1      11.618  34.898  39.628  0.00  0.00    +0.000 HD
ATOM     13  H   ARG E   1      11.982  35.166  41.231  0.00  0.00    +0.000 HD
ATOM     14  H   ARG E   1      10.944  36.193  40.430  0.00  0.00    +0.000 HD
ATOM     15  H   ARG E   1      11.568  31.009  37.600  0.00  0.00    +0.000 HD
ATOM     16  H   ARG E   1      13.323  27.724  39.024  0.00  0.00    +0.000 HD
ATOM     17  H   ARG E   1      12.715  28.890  40.109  0.00  0.00    +0.000 HD
ATOM     18  H   ARG E   1      12.368  29.450  36.161  0.00  0.00    +0.000 HD
ATOM     19  H   ARG E   1      13.113  28.040  36.762  0.00  0.00    +0.000 HD
TER 
REMARK  Name = /data/user_data/xianyang/t3-aimnet-affinity-balanced/L3/Q00959/pocket.pdb
REMARK                            x       y       z     vdW  Elec       q    Type
REMARK                         _______ _______ _______ _____ _____    ______ ____
ATOM      1  N   GLY F   1      22.557  25.837  43.215  0.00  0.00    +0.000 N 
ATOM      2  CA  GLY F   1      23.201  27.004  42.640  0.00  0.00    +0.000 C 
ATOM      3  C   GLY F   1      23.647  26.595  41.255  0.00  0.00    +0.000 C 
ATOM      4  O   GLY F   1      22.991  25.765  40.623  0.00  0.00    +0.000 OA
ATOM      5  H   GLY F   1      22.234  26.057  44.157  0.00  0.00    +0.000 HD
ATOM      6  H   GLY F   1      23.224  25.066  43.256  0.00  0.00    +0.000 HD
ATOM      7  H   GLY F   1      21.761  25.568  42.636  0.00  0.00    +0.000 HD
TER 
REMARK  Name = /data/user_data/xianyang/t3-aimnet-affinity-balanced/L3/Q00959/pocket.pdb
REMARK                            x       y       z     vdW  Elec       q    Type
REMARK                         _______ _______ _______ _____ _____    ______ ____
ATOM      1  N   THR G   1      24.104  24.923  28.466  0.00  0.00    +0.000 N 
ATOM      2  CA  THR G   1      23.157  24.555  29.516  0.00  0.00    +0.000 C 
ATOM      3  C   THR G   1      21.837  24.166  28.861  0.00  0.00    +0.000 C 
ATOM      4  O   THR G   1      21.744  24.106  27.632  0.00  0.00    +0.000 OA
ATOM      5  CB  THR G   1      22.889  25.759  30.471  0.00  0.00    +0.000 C 
ATOM      6  OG1 THR G   1      22.065  25.344  31.569  0.00  0.00    +0.000 OA
ATOM      7  CG2 THR G   1      22.177  26.886  29.723  0.00  0.00    +0.000 C 
ATOM      8  N   VAL G   2      20.833  23.871  29.683  0.00  0.00    +0.000 N 
ATOM      9  CA  VAL G   2      19.495  23.567  29.180  0.00  0.00    +0.000 C 
ATOM     10  C   VAL G   2      18.829  24.928  29.341  0.00  0.00    +0.000 C 
ATOM     11  O   VAL G   2      18.775  25.472  30.443  0.00  0.00    +0.000 OA
ATOM     12  CB  VAL G   2      18.763  22.527  30.047  0.00  0.00    +0.000 C 
ATOM     13  CG1 VAL G   2      17.334  22.339  29.533  0.00  0.00    +0.000 C 
ATOM     14  CG2 VAL G   2      19.515  21.212  30.018  0.00  0.00    +0.000 C 
ATOM     15  H   THR G   1      24.263  24.122  27.855  0.00  0.00    +0.000 HD
ATOM     16  H   THR G   1      24.987  25.208  28.889  0.00  0.00    +0.000 HD
ATOM     17  H   THR G   1      23.723  25.696  27.920  0.00  0.00    +0.000 HD
ATOM     18  H   THR G   1      21.213  25.027  31.232  0.00  0.00    +0.000 HD
ATOM     19  H   VAL G   2      20.996  23.857  30.654  0.00  0.00    +0.000 HD
TER 
REMARK  Name = /data/user_data/xianyang/t3-aimnet-affinity-balanced/L3/Q00959/pocket.pdb
REMARK                            x       y       z     vdW  Elec       q    Type
REMARK                         _______ _______ _______ _____ _____    ______ ____
ATOM      1  N   ASN H   1      16.032  28.198  29.379  0.00  0.00    +0.000 N 
ATOM      2  CA  ASN H   1      14.791  28.609  30.029  0.00  0.00    +0.000 C 
ATOM      3  C   ASN H   1      14.638  28.438  31.535  0.00  0.00    +0.000 C 
ATOM      4  O   ASN H   1      13.564  28.714  32.084  0.00  0.00    +0.000 OA
ATOM      5  CB  ASN H   1      13.608  27.966  29.300  0.00  0.00    +0.000 C 
ATOM      6  CG  ASN H   1      13.651  28.218  27.804  0.00  0.00    +0.000 C 
ATOM      7  OD1 ASN H   1      13.998  29.314  27.361  0.00  0.00    +0.000 OA
ATOM      8  ND2 ASN H   1      13.293  27.208  27.019  0.00  0.00    +0.000 N 
ATOM      9  N   GLY H   2      15.709  28.021  32.204  0.00  0.00    +0.000 N 
ATOM     10  CA  GLY H   2      15.663  27.842  33.645  0.00  0.00    +0.000 C 
ATOM     11  C   GLY H   2      16.424  28.912  34.411  0.00  0.00    +0.000 C 
ATOM     12  O   GLY H   2      16.865  29.911  33.838  0.00  0.00    +0.000 OA
ATOM     13  N   SER H   3      16.588  28.705  35.714  0.00  0.00    +0.000 N 
ATOM     14  CA  SER H   3      17.284  29.676  36.550  0.00  0.00    +0.000 C 
ATOM     15  C   SER H   3      18.761  29.822  36.192  0.00  0.00    +0.000 C 
ATOM     16  O   SER H   3      19.330  30.900  36.339  0.00  0.00    +0.000 OA
ATOM     17  CB  SER H   3      17.139  29.307  38.031  0.00  0.00    +0.000 C 
ATOM     18  OG  SER H   3      17.695  28.036  38.302  0.00  0.00    +0.000 OA
ATOM     19  N   THR H   4      19.386  28.745  35.727  0.00  0.00    +0.000 N 
ATOM     20  CA  THR H   4      20.796  28.812  35.348  0.00  0.00    +0.000 C 
ATOM     21  C   THR H   4      20.976  29.771  34.175  0.00  0.00    +0.000 C 
ATOM     22  O   THR H   4      21.793  30.691  34.242  0.00  0.00    +0.000 OA
ATOM     23  CB  THR H   4      21.346  27.424  34.968  0.00  0.00    +0.000 C 
ATOM     24  OG1 THR H   4      21.403  26.607  36.145  0.00  0.00    +0.000 OA
ATOM     25  CG2 THR H   4      22.755  27.540  34.378  0.00  0.00    +0.000 C 
ATOM     26  N   GLU H   5      20.218  29.568  33.100  0.00  0.00    +0.000 N 
ATOM     27  CA  GLU H   5      20.333  30.468  31.957  0.00  0.00    +0.000 C 
ATOM     28  C   GLU H   5      20.025  31.908  32.365  0.00  0.00    +0.000 C 
ATOM     29  O   GLU H   5      20.700  32.840  31.924  0.00  0.00    +0.000 OA
ATOM     30  CB  GLU H   5      19.394  30.054  30.815  0.00  0.00    +0.000 C 
ATOM     31  CG  GLU H   5      19.457  31.038  29.641  0.00  0.00    +0.000 C 
ATOM     32  CD  GLU H   5      18.674  30.599  28.420  0.00  0.00    +0.000 C 
ATOM     33  OE2 GLU H   5      17.470  30.303  28.553  0.00  0.00    +0.000 OA
ATOM     34  OE1 GLU H   5      19.268  30.563  27.317  0.00  0.00    +0.000 OA
ATOM     35  H   ASN H   1      15.968  28.380  28.377  0.00  0.00    +0.000 HD
ATOM     36  H   ASN H   1      16.183  27.201  29.534  0.00  0.00    +0.000 HD
ATOM     37  H   ASN H   1      16.812  28.725  29.771  0.00  0.00    +0.000 HD
ATOM     38  H   ASN H   1      13.303  27.318  26.041  0.00  0.00    +0.000 HD
ATOM     39  H   ASN H   1      13.018  26.350  27.416  0.00  0.00    +0.000 HD
ATOM     40  H   GLY H   2      16.543  27.831  31.717  0.00  0.00    +0.000 HD
ATOM     41  H   SER H   3      16.233  27.882  36.121  0.00  0.00    +0.000 HD
ATOM     42  H   SER H   3      17.230  27.362  37.782  0.00  0.00    +0.000 HD
ATOM     43  H   THR H   4      18.896  27.896  35.637  0.00  0.00    +0.000 HD
ATOM     44  H   THR H   4      21.993  27.018  36.796  0.00  0.00    +0.000 HD
ATOM     45  H   GLU H   5      19.584  28.815  33.076  0.00  0.00    +0.000 HD
TER 
REMARK  Name = /data/user_data/xianyang/t3-aimnet-affinity-balanced/L3/Q00959/pocket.pdb
REMARK                            x       y       z     vdW  Elec       q    Type
REMARK                         _______ _______ _______ _____ _____    ______ ____
ATOM      1  N   ILE I   1      26.865  23.335  32.094  0.00  0.00    +0.000 N 
ATOM      2  CA  ILE I   1      26.557  24.253  33.191  0.00  0.00    +0.000 C 
ATOM      3  C   ILE I   1      25.088  24.066  33.556  0.00  0.00    +0.000 C 
ATOM      4  O   ILE I   1      24.212  24.268  32.718  0.00  0.00    +0.000 OA
ATOM      5  CB  ILE I   1      26.792  25.714  32.745  0.00  0.00    +0.000 C 
ATOM      6  CG1 ILE I   1      28.154  25.822  32.053  0.00  0.00    +0.000 C 
ATOM      7  CG2 ILE I   1      26.713  26.654  33.937  0.00  0.00    +0.000 C 
ATOM      8  CD1 ILE I   1      29.309  25.250  32.861  0.00  0.00    +0.000 C 
ATOM      9  N   TYR I   2      24.817  23.710  34.809  0.00  0.00    +0.000 N 
ATOM     10  CA  TYR I   2      23.438  23.447  35.207  0.00  0.00    +0.000 C 
ATOM     11  C   TYR I   2      23.258  23.469  36.727  0.00  0.00    +0.000 C 
ATOM     12  O   TYR I   2      24.202  23.692  37.485  0.00  0.00    +0.000 OA
ATOM     13  CB  TYR I   2      23.045  22.068  34.656  0.00  0.00    +0.000 C 
ATOM     14  CG  TYR I   2      21.564  21.741  34.653  0.00  0.00    +0.000 A 
ATOM     15  CD1 TYR I   2      20.690  22.391  33.788  0.00  0.00    +0.000 A 
ATOM     16  CD2 TYR I   2      21.045  20.761  35.505  0.00  0.00    +0.000 A 
ATOM     17  CE1 TYR I   2      19.327  22.076  33.761  0.00  0.00    +0.000 A 
ATOM     18  CE2 TYR I   2      19.682  20.442  35.490  0.00  0.00    +0.000 A 
ATOM     19  CZ  TYR I   2      18.834  21.103  34.616  0.00  0.00    +0.000 A 
ATOM     20  OH  TYR I   2      17.488  20.807  34.602  0.00  0.00    +0.000 OA
ATOM     21  N   ASP I   3      22.018  23.243  37.145  0.00  0.00    +0.000 N 
ATOM     22  CA  ASP I   3      21.635  23.189  38.546  0.00  0.00    +0.000 C 
ATOM     23  C   ASP I   3      22.601  22.293  39.326  0.00  0.00    +0.000 C 
ATOM     24  O   ASP I   3      22.853  21.147  38.947  0.00  0.00    +0.000 OA
ATOM     25  CB  ASP I   3      20.220  22.625  38.648  0.00  0.00    +0.000 C 
ATOM     26  CG  ASP I   3      19.739  22.524  40.070  0.00  0.00    +0.000 C 
ATOM     27  OD1 ASP I   3      19.318  23.559  40.627  0.00  0.00    +0.000 OA
ATOM     28  OD2 ASP I   3      19.788  21.408  40.635  0.00  0.00    +0.000 OA
ATOM     29  N   ALA I   4      23.134  22.820  40.420  0.00  0.00    +0.000 N 
ATOM     30  CA  ALA I   4      24.085  22.082  41.238  0.00  0.00    +0.000 C 
ATOM     31  C   ALA I   4      23.538  20.805  41.870  0.00  0.00    +0.000 C 
ATOM     32  O   ALA I   4      24.234  19.794  41.916  0.00  0.00    +0.000 OA
ATOM     33  CB  ALA I   4      24.644  22.995  42.327  0.00  0.00    +0.000 C 
ATOM     34  H   ILE I   1      27.844  23.439  31.829  0.00  0.00    +0.000 HD
ATOM     35  H   ILE I   1      26.271  23.551  31.293  0.00  0.00    +0.000 HD
ATOM     36  H   ILE I   1      26.694  22.376  32.395  0.00  0.00    +0.000 HD
ATOM     37  H   TYR I   2      25.545  23.624  35.466  0.00  0.00    +0.000 HD
ATOM     38  H   TYR I   2      16.916  21.255  34.010  0.00  0.00    +0.000 HD
ATOM     39  H   ASP I   3      21.318  23.104  36.467  0.00  0.00    +0.000 HD
ATOM     40  H   ALA I   4      22.880  23.733  40.685  0.00  0.00    +0.000 HD
TER 
REMARK  Name = /data/user_data/xianyang/t3-aimnet-affinity-balanced/L3/Q00959/pocket.pdb
REMARK                            x       y       z     vdW  Elec       q    Type
REMARK                         _______ _______ _______ _____ _____    ______ ____
ATOM      1  N   TYR J   1      16.096  24.879  46.608  0.00  0.00    +0.000 N 
ATOM      2  CA  TYR J   1      14.790  24.519  46.076  0.00  0.00    +0.000 C 
ATOM      3  C   TYR J   1      13.770  24.901  47.132  0.00  0.00    +0.000 C 
ATOM      4  O   TYR J   1      14.019  24.764  48.329  0.00  0.00    +0.000 OA
ATOM      5  CB  TYR J   1      14.655  23.015  45.851  0.00  0.00    +0.000 C 
ATOM      6  CG  TYR J   1      15.441  22.416  44.711  0.00  0.00    +0.000 A 
ATOM      7  CD1 TYR J   1      16.089  23.210  43.761  0.00  0.00    +0.000 A 
ATOM      8  CD2 TYR J   1      15.515  21.032  44.575  0.00  0.00    +0.000 A 
ATOM      9  CE1 TYR J   1      16.797  22.627  42.704  0.00  0.00    +0.000 A 
ATOM     10  CE2 TYR J   1      16.210  20.444  43.534  0.00  0.00    +0.000 A 
ATOM     11  CZ  TYR J   1      16.851  21.239  42.602  0.00  0.00    +0.000 A 
ATOM     12  OH  TYR J   1      17.543  20.637  41.580  0.00  0.00    +0.000 OA
ATOM     13  H   TYR J   1      16.818  24.639  45.928  0.00  0.00    +0.000 HD
ATOM     14  H   TYR J   1      16.262  24.368  47.475  0.00  0.00    +0.000 HD
ATOM     15  H   TYR J   1      16.123  25.882  46.793  0.00  0.00    +0.000 HD
ATOM     16  H   TYR J   1      17.983  21.161  40.940  0.00  0.00    +0.000 HD
TER 
