REMARK  Name = /data/user_data/xianyang/t3-aimnet-affinity-balanced/L1/P33981/pocket.pdb
REMARK                            x       y       z     vdW  Elec       q    Type
REMARK                         _______ _______ _______ _____ _____    ______ ____
ATOM      1  N   LYS A   1      41.466  53.269  41.130  0.00  0.00    +0.000 N 
ATOM      2  CA  LYS A   1      41.502  52.618  42.435  0.00  0.00    +0.000 C 
ATOM      3  C   LYS A   1      41.554  51.097  42.327  0.00  0.00    +0.000 C 
ATOM      4  O   LYS A   1      41.240  50.520  41.286  0.00  0.00    +0.000 OA
ATOM      5  CB  LYS A   1      40.280  53.011  43.261  0.00  0.00    +0.000 C 
ATOM      6  CG  LYS A   1      38.967  52.923  42.504  0.00  0.00    +0.000 C 
ATOM      7  CD  LYS A   1      37.791  52.831  43.460  0.00  0.00    +0.000 C 
ATOM      8  CE  LYS A   1      36.474  52.914  42.708  0.00  0.00    +0.000 C 
ATOM      9  NZ  LYS A   1      35.326  52.577  43.587  0.00  0.00    +0.000 N 
ATOM     10  H   LYS A   1      42.288  52.996  40.591  0.00  0.00    +0.000 HD
ATOM     11  H   LYS A   1      41.462  54.281  41.255  0.00  0.00    +0.000 HD
ATOM     12  H   LYS A   1      40.623  52.984  40.631  0.00  0.00    +0.000 HD
ATOM     13  H   LYS A   1      35.429  51.622  43.930  0.00  0.00    +0.000 HD
ATOM     14  H   LYS A   1      34.458  52.657  43.058  0.00  0.00    +0.000 HD
ATOM     15  H   LYS A   1      35.303  53.221  44.378  0.00  0.00    +0.000 HD
TER 
REMARK  Name = /data/user_data/xianyang/t3-aimnet-affinity-balanced/L1/P33981/pocket.pdb
REMARK                            x       y       z     vdW  Elec       q    Type
REMARK                         _______ _______ _______ _____ _____    ______ ____
ATOM      1  N   ILE B   1      40.087  47.435  43.318  0.00  0.00    +0.000 N 
ATOM      2  CA  ILE B   1      38.725  46.917  43.518  0.00  0.00    +0.000 C 
ATOM      3  C   ILE B   1      38.667  45.410  43.795  0.00  0.00    +0.000 C 
ATOM      4  O   ILE B   1      37.577  44.835  43.880  0.00  0.00    +0.000 OA
ATOM      5  CB  ILE B   1      37.826  47.235  42.297  0.00  0.00    +0.000 C 
ATOM      6  CG1 ILE B   1      38.286  46.445  41.061  0.00  0.00    +0.000 C 
ATOM      7  CG2 ILE B   1      37.824  48.732  42.011  0.00  0.00    +0.000 C 
ATOM      8  CD1 ILE B   1      37.532  46.771  39.792  0.00  0.00    +0.000 C 
ATOM      9  N   GLY B   2      39.827  44.767  43.934  0.00  0.00    +0.000 N 
ATOM     10  CA  GLY B   2      39.882  43.322  44.147  0.00  0.00    +0.000 C 
ATOM     11  C   GLY B   2      41.272  42.868  44.528  0.00  0.00    +0.000 C 
ATOM     12  O   GLY B   2      42.251  43.557  44.229  0.00  0.00    +0.000 OA
ATOM     13  N   SER B   3      41.355  41.714  45.195  0.00  0.00    +0.000 N 
ATOM     14  CA  SER B   3      42.639  41.148  45.632  0.00  0.00    +0.000 C 
ATOM     15  C   SER B   3      42.592  39.631  45.811  0.00  0.00    +0.000 C 
ATOM     16  O   SER B   3      41.538  39.071  46.123  0.00  0.00    +0.000 OA
ATOM     17  CB  SER B   3      43.085  41.798  46.941  0.00  0.00    +0.000 C 
ATOM     18  OG  SER B   3      43.838  42.962  46.673  0.00  0.00    +0.000 OA
ATOM     19  N   GLY B   4      43.743  38.980  45.627  0.00  0.00    +0.000 NA
ATOM     20  CA  GLY B   4      43.842  37.520  45.746  0.00  0.00    +0.000 C 
ATOM     21  C   GLY B   4      45.259  36.965  45.814  0.00  0.00    +0.000 C 
ATOM     22  O   GLY B   4      45.764  36.395  44.840  0.00  0.00    +0.000 OA
ATOM     23  H   ILE B   1      40.046  48.438  43.140  0.00  0.00    +0.000 HD
ATOM     24  H   ILE B   1      40.516  46.965  42.521  0.00  0.00    +0.000 HD
ATOM     25  H   ILE B   1      40.643  47.261  44.155  0.00  0.00    +0.000 HD
ATOM     26  H   GLY B   2      40.667  45.278  43.892  0.00  0.00    +0.000 HD
ATOM     27  H   SER B   3      40.526  41.225  45.401  0.00  0.00    +0.000 HD
ATOM     28  H   SER B   3      44.624  42.727  46.155  0.00  0.00    +0.000 HD
TER 
REMARK  Name = /data/user_data/xianyang/t3-aimnet-affinity-balanced/L1/P33981/pocket.pdb
REMARK                            x       y       z     vdW  Elec       q    Type
REMARK                         _______ _______ _______ _____ _____    ______ ____
ATOM      1  N   SER C   1      47.595  38.700  43.253  0.00  0.00    +0.000 N 
ATOM      2  CA  SER C   1      46.880  39.400  42.193  0.00  0.00    +0.000 C 
ATOM      3  C   SER C   1      46.079  40.581  42.742  0.00  0.00    +0.000 C 
ATOM      4  O   SER C   1      45.542  40.513  43.845  0.00  0.00    +0.000 OA
ATOM      5  CB  SER C   1      45.938  38.440  41.460  0.00  0.00    +0.000 C 
ATOM      6  OG  SER C   1      44.802  38.132  42.249  0.00  0.00    +0.000 OA
ATOM      7  N   LYS C   2      46.004  41.654  41.959  0.00  0.00    +0.000 N 
ATOM      8  CA  LYS C   2      45.193  42.814  42.291  0.00  0.00    +0.000 C 
ATOM      9  C   LYS C   2      44.337  43.193  41.092  0.00  0.00    +0.000 C 
ATOM     10  O   LYS C   2      44.742  42.984  39.950  0.00  0.00    +0.000 OA
ATOM     11  CB  LYS C   2      46.094  43.991  42.669  0.00  0.00    +0.000 C 
ATOM     12  CG  LYS C   2      47.147  43.661  43.718  0.00  0.00    +0.000 C 
ATOM     13  CD  LYS C   2      47.979  44.885  44.074  0.00  0.00    +0.000 C 
ATOM     14  CE  LYS C   2      49.128  44.544  45.017  0.00  0.00    +0.000 C 
ATOM     15  NZ  LYS C   2      48.667  43.895  46.279  0.00  0.00    +0.000 N 
ATOM     16  N   VAL C   3      43.154  43.740  41.349  0.00  0.00    +0.000 N 
ATOM     17  CA  VAL C   3      42.295  44.238  40.291  0.00  0.00    +0.000 C 
ATOM     18  C   VAL C   3      42.110  45.742  40.472  0.00  0.00    +0.000 C 
ATOM     19  O   VAL C   3      41.808  46.203  41.571  0.00  0.00    +0.000 OA
ATOM     20  CB  VAL C   3      40.935  43.525  40.295  0.00  0.00    +0.000 C 
ATOM     21  CG1 VAL C   3      40.082  43.981  39.114  0.00  0.00    +0.000 C 
ATOM     22  CG2 VAL C   3      41.145  42.022  40.252  0.00  0.00    +0.000 C 
ATOM     23  H   SER C   1      48.117  37.920  42.853  0.00  0.00    +0.000 HD
ATOM     24  H   SER C   1      46.927  38.346  43.938  0.00  0.00    +0.000 HD
ATOM     25  H   SER C   1      48.241  39.344  43.710  0.00  0.00    +0.000 HD
ATOM     26  H   SER C   1      45.086  37.701  43.070  0.00  0.00    +0.000 HD
ATOM     27  H   LYS C   2      46.519  41.663  41.120  0.00  0.00    +0.000 HD
ATOM     28  H   LYS C   2      48.056  44.535  46.787  0.00  0.00    +0.000 HD
ATOM     29  H   LYS C   2      49.475  43.665  46.858  0.00  0.00    +0.000 HD
ATOM     30  H   LYS C   2      48.155  43.042  46.055  0.00  0.00    +0.000 HD
ATOM     31  H   VAL C   3      42.852  43.809  42.283  0.00  0.00    +0.000 HD
TER 
REMARK  Name = /data/user_data/xianyang/t3-aimnet-affinity-balanced/L1/P33981/pocket.pdb
REMARK                            x       y       z     vdW  Elec       q    Type
REMARK                         _______ _______ _______ _____ _____    ______ ____
ATOM      1  N   GLN D   1      40.455  49.509  38.859  0.00  0.00    +0.000 N 
ATOM      2  CA  GLN D   1      39.674  50.334  37.928  0.00  0.00    +0.000 C 
ATOM      3  C   GLN D   1      40.631  51.329  37.284  0.00  0.00    +0.000 C 
ATOM      4  O   GLN D   1      41.464  51.906  37.971  0.00  0.00    +0.000 OA
ATOM      5  CB  GLN D   1      38.565  51.081  38.667  0.00  0.00    +0.000 C 
ATOM      6  CG  GLN D   1      37.499  51.645  37.753  0.00  0.00    +0.000 C 
ATOM      7  CD  GLN D   1      36.365  52.315  38.515  0.00  0.00    +0.000 C 
ATOM      8  OE1 GLN D   1      36.595  53.079  39.461  0.00  0.00    +0.000 OA
ATOM      9  NE2 GLN D   1      35.134  52.052  38.090  0.00  0.00    +0.000 N 
ATOM     10  H   GLN D   1      41.189  49.020  38.346  0.00  0.00    +0.000 HD
ATOM     11  H   GLN D   1      39.841  48.828  39.307  0.00  0.00    +0.000 HD
ATOM     12  H   GLN D   1      40.877  50.106  39.570  0.00  0.00    +0.000 HD
ATOM     13  H   GLN D   1      34.995  51.438  37.333  0.00  0.00    +0.000 HD
ATOM     14  H   GLN D   1      34.361  52.471  38.532  0.00  0.00    +0.000 HD
TER 
REMARK  Name = /data/user_data/xianyang/t3-aimnet-affinity-balanced/L1/P33981/pocket.pdb
REMARK                            x       y       z     vdW  Elec       q    Type
REMARK                         _______ _______ _______ _____ _____    ______ ____
ATOM      1  N   ALA E   1      38.681  47.481  33.745  0.00  0.00    +0.000 N 
ATOM      2  CA  ALA E   1      39.334  46.840  34.885  0.00  0.00    +0.000 C 
ATOM      3  C   ALA E   1      40.582  46.120  34.387  0.00  0.00    +0.000 C 
ATOM      4  O   ALA E   1      40.553  45.465  33.351  0.00  0.00    +0.000 OA
ATOM      5  CB  ALA E   1      38.396  45.867  35.563  0.00  0.00    +0.000 C 
ATOM      6  H   ALA E   1      39.330  48.132  33.303  0.00  0.00    +0.000 HD
ATOM      7  H   ALA E   1      37.857  47.989  34.067  0.00  0.00    +0.000 HD
ATOM      8  H   ALA E   1      38.400  46.770  33.070  0.00  0.00    +0.000 HD
TER 
REMARK  Name = /data/user_data/xianyang/t3-aimnet-affinity-balanced/L1/P33981/pocket.pdb
REMARK                            x       y       z     vdW  Elec       q    Type
REMARK                         _______ _______ _______ _____ _____    ______ ____
ATOM      1  N   LYS F   1      43.311  43.311  35.632  0.00  0.00    +0.000 N 
ATOM      2  CA  LYS F   1      43.747  42.342  36.628  0.00  0.00    +0.000 C 
ATOM      3  C   LYS F   1      45.244  42.099  36.486  0.00  0.00    +0.000 C 
ATOM      4  O   LYS F   1      45.733  41.738  35.414  0.00  0.00    +0.000 OA
ATOM      5  CB  LYS F   1      42.999  41.044  36.476  0.00  0.00    +0.000 C 
ATOM      6  CG  LYS F   1      43.435  39.981  37.460  0.00  0.00    +0.000 C 
ATOM      7  CD  LYS F   1      42.503  38.798  37.371  0.00  0.00    +0.000 C 
ATOM      8  CE  LYS F   1      43.147  37.567  37.957  0.00  0.00    +0.000 C 
ATOM      9  NZ  LYS F   1      42.151  36.471  38.029  0.00  0.00    +0.000 N 
ATOM     10  H   LYS F   1      42.308  43.471  35.730  0.00  0.00    +0.000 HD
ATOM     11  H   LYS F   1      43.508  42.951  34.698  0.00  0.00    +0.000 HD
ATOM     12  H   LYS F   1      43.811  44.189  35.770  0.00  0.00    +0.000 HD
ATOM     13  H   LYS F   1      41.371  36.759  38.620  0.00  0.00    +0.000 HD
ATOM     14  H   LYS F   1      42.589  35.639  38.425  0.00  0.00    +0.000 HD
ATOM     15  H   LYS F   1      41.808  36.261  37.092  0.00  0.00    +0.000 HD
TER 
REMARK  Name = /data/user_data/xianyang/t3-aimnet-affinity-balanced/L1/P33981/pocket.pdb
REMARK                            x       y       z     vdW  Elec       q    Type
REMARK                         _______ _______ _______ _____ _____    ______ ____
ATOM      1  N   ILE G   1      32.337  37.699  31.388  0.00  0.00    +0.000 N 
ATOM      2  CA  ILE G   1      33.057  38.970  31.413  0.00  0.00    +0.000 C 
ATOM      3  C   ILE G   1      33.912  39.152  30.149  0.00  0.00    +0.000 C 
ATOM      4  O   ILE G   1      34.445  38.185  29.593  0.00  0.00    +0.000 OA
ATOM      5  CB  ILE G   1      33.933  39.104  32.673  0.00  0.00    +0.000 C 
ATOM      6  CG1 ILE G   1      34.518  40.522  32.770  0.00  0.00    +0.000 C 
ATOM      7  CG2 ILE G   1      35.057  38.061  32.676  0.00  0.00    +0.000 C 
ATOM      8  CD1 ILE G   1      35.087  40.857  34.128  0.00  0.00    +0.000 C 
ATOM      9  H   ILE G   1      31.770  37.646  30.542  0.00  0.00    +0.000 HD
ATOM     10  H   ILE G   1      31.733  37.634  32.207  0.00  0.00    +0.000 HD
ATOM     11  H   ILE G   1      33.006  36.929  31.397  0.00  0.00    +0.000 HD
TER 
REMARK  Name = /data/user_data/xianyang/t3-aimnet-affinity-balanced/L1/P33981/pocket.pdb
REMARK                            x       y       z     vdW  Elec       q    Type
REMARK                         _______ _______ _______ _____ _____    ______ ____
ATOM      1  N   MET H   1      40.075  44.079  31.100  0.00  0.00    +0.000 N 
ATOM      2  CA  MET H   1      38.742  43.557  31.112  0.00  0.00    +0.000 C 
ATOM      3  C   MET H   1      37.724  44.693  31.215  0.00  0.00    +0.000 C 
ATOM      4  O   MET H   1      38.069  45.841  31.488  0.00  0.00    +0.000 OA
ATOM      5  CB  MET H   1      38.577  42.605  32.301  0.00  0.00    +0.000 C 
ATOM      6  CG  MET H   1      39.491  41.380  32.238  0.00  0.00    +0.000 C 
ATOM      7  SD  MET H   1      39.500  40.399  33.755  0.00  0.00    +0.000 S 
ATOM      8  CE  MET H   1      38.104  39.372  33.426  0.00  0.00    +0.000 C 
ATOM      9  N   GLU H   2      36.485  44.326  30.920  0.00  0.00    +0.000 N 
ATOM     10  CA  GLU H   2      35.273  45.070  31.222  0.00  0.00    +0.000 C 
ATOM     11  C   GLU H   2      35.276  45.471  32.676  0.00  0.00    +0.000 C 
ATOM     12  O   GLU H   2      35.594  44.644  33.525  0.00  0.00    +0.000 OA
ATOM     13  CB  GLU H   2      34.094  44.107  31.056  0.00  0.00    +0.000 C 
ATOM     14  CG  GLU H   2      32.901  44.626  30.312  0.00  0.00    +0.000 C 
ATOM     15  CD  GLU H   2      31.760  43.633  30.351  0.00  0.00    +0.000 C 
ATOM     16  OE2 GLU H   2      31.995  42.445  30.687  0.00  0.00    +0.000 OA
ATOM     17  OE1 GLU H   2      30.628  44.046  30.045  0.00  0.00    +0.000 OA
ATOM     18  N   CYS H   3      34.892  46.708  32.974  0.00  0.00    +0.000 N 
ATOM     19  CA  CYS H   3      34.672  47.121  34.358  0.00  0.00    +0.000 C 
ATOM     20  C   CYS H   3      33.201  46.937  34.709  0.00  0.00    +0.000 C 
ATOM     21  O   CYS H   3      32.322  47.379  33.976  0.00  0.00    +0.000 OA
ATOM     22  CB  CYS H   3      35.054  48.587  34.557  0.00  0.00    +0.000 C 
ATOM     23  SG  CYS H   3      35.108  49.037  36.305  0.00  0.00    +0.000 S 
ATOM     24  N   GLY H   4      32.932  46.282  35.825  0.00  0.00    +0.000 N 
ATOM     25  CA  GLY H   4      31.563  46.112  36.286  0.00  0.00    +0.000 C 
ATOM     26  C   GLY H   4      31.188  47.124  37.348  0.00  0.00    +0.000 C 
ATOM     27  O   GLY H   4      32.045  47.775  37.947  0.00  0.00    +0.000 OA
ATOM     28  N   ASN H   5      29.891  47.236  37.594  0.00  0.00    +0.000 N 
ATOM     29  CA  ASN H   5      29.378  48.142  38.612  0.00  0.00    +0.000 C 
ATOM     30  C   ASN H   5      29.795  47.658  39.995  0.00  0.00    +0.000 C 
ATOM     31  O   ASN H   5      30.258  48.444  40.824  0.00  0.00    +0.000 OA
ATOM     32  CB  ASN H   5      27.853  48.245  38.487  0.00  0.00    +0.000 C 
ATOM     33  CG  ASN H   5      27.409  48.550  37.063  0.00  0.00    +0.000 C 
ATOM     34  OD1 ASN H   5      26.628  47.812  36.465  0.00  0.00    +0.000 OA
ATOM     35  ND2 ASN H   5      27.933  49.628  36.504  0.00  0.00    +0.000 N 
ATOM     36  N   ILE H   6      29.674  46.349  40.213  0.00  0.00    +0.000 N 
ATOM     37  CA  ILE H   6      29.895  45.723  41.518  0.00  0.00    +0.000 C 
ATOM     38  C   ILE H   6      29.706  44.204  41.369  0.00  0.00    +0.000 C 
ATOM     39  O   ILE H   6      29.060  43.766  40.428  0.00  0.00    +0.000 OA
ATOM     40  CB  ILE H   6      28.883  46.262  42.552  0.00  0.00    +0.000 C 
ATOM     41  CG1 ILE H   6      29.176  45.732  43.958  0.00  0.00    +0.000 C 
ATOM     42  CG2 ILE H   6      27.454  45.933  42.129  0.00  0.00    +0.000 C 
ATOM     43  CD1 ILE H   6      28.459  46.504  45.045  0.00  0.00    +0.000 C 
ATOM     44  N   ASP H   7      30.250  43.408  42.291  0.00  0.00    +0.000 N 
ATOM     45  CA  ASP H   7      30.033  41.957  42.257  0.00  0.00    +0.000 C 
ATOM     46  C   ASP H   7      28.824  41.555  43.085  0.00  0.00    +0.000 C 
ATOM     47  O   ASP H   7      28.439  42.254  44.033  0.00  0.00    +0.000 OA
ATOM     48  CB  ASP H   7      31.250  41.190  42.769  0.00  0.00    +0.000 C 
ATOM     49  CG  ASP H   7      31.477  41.398  44.232  0.00  0.00    +0.000 C 
ATOM     50  OD1 ASP H   7      32.000  42.481  44.586  0.00  0.00    +0.000 OA
ATOM     51  OD2 ASP H   7      31.120  40.497  45.023  0.00  0.00    +0.000 OA
ATOM     52  H   MET H   1      40.185  44.713  30.308  0.00  0.00    +0.000 HD
ATOM     53  H   MET H   1      40.740  43.311  31.015  0.00  0.00    +0.000 HD
ATOM     54  H   MET H   1      40.250  44.586  31.968  0.00  0.00    +0.000 HD
ATOM     55  H   GLU H   2      36.375  43.467  30.451  0.00  0.00    +0.000 HD
ATOM     56  H   CYS H   3      34.753  47.358  32.248  0.00  0.00    +0.000 HD
ATOM     57  H   CYS H   3      33.878  48.861  36.857  0.00  0.00    +0.000 HD
ATOM     58  H   GLY H   4      33.671  45.903  36.353  0.00  0.00    +0.000 HD
ATOM     59  H   ASN H   5      29.256  46.692  37.074  0.00  0.00    +0.000 HD
ATOM     60  H   ASN H   5      27.684  49.876  35.585  0.00  0.00    +0.000 HD
ATOM     61  H   ASN H   5      28.572  50.182  37.007  0.00  0.00    +0.000 HD
ATOM     62  H   ILE H   6      29.423  45.772  39.456  0.00  0.00    +0.000 HD
ATOM     63  H   ASP H   7      30.805  43.799  43.004  0.00  0.00    +0.000 HD
TER 
REMARK  Name = /data/user_data/xianyang/t3-aimnet-affinity-balanced/L1/P33981/pocket.pdb
REMARK                            x       y       z     vdW  Elec       q    Type
REMARK                         _______ _______ _______ _____ _____    ______ ____
ATOM      1  N   SER I   1      28.873  41.347  47.162  0.00  0.00    +0.000 N 
ATOM      2  CA  SER I   1      28.827  42.636  47.839  0.00  0.00    +0.000 C 
ATOM      3  C   SER I   1      27.456  43.276  47.685  0.00  0.00    +0.000 C 
ATOM      4  O   SER I   1      26.887  43.753  48.659  0.00  0.00    +0.000 OA
ATOM      5  CB  SER I   1      29.917  43.553  47.297  0.00  0.00    +0.000 C 
ATOM      6  OG  SER I   1      31.175  42.933  47.481  0.00  0.00    +0.000 OA
ATOM      7  H   SER I   1      29.799  40.935  47.277  0.00  0.00    +0.000 HD
ATOM      8  H   SER I   1      28.680  41.477  46.169  0.00  0.00    +0.000 HD
ATOM      9  H   SER I   1      28.172  40.726  47.566  0.00  0.00    +0.000 HD
ATOM     10  H   SER I   1      31.191  42.087  47.007  0.00  0.00    +0.000 HD
TER 
REMARK  Name = /data/user_data/xianyang/t3-aimnet-affinity-balanced/L1/P33981/pocket.pdb
REMARK                            x       y       z     vdW  Elec       q    Type
REMARK                         _______ _______ _______ _____ _____    ______ ____
ATOM      1  N   LYS J   1      24.767  44.269  51.057  0.00  0.00    +0.000 N 
ATOM      2  CA  LYS J   1      24.119  45.547  51.369  0.00  0.00    +0.000 C 
ATOM      3  C   LYS J   1      22.736  45.623  50.725  0.00  0.00    +0.000 C 
ATOM      4  O   LYS J   1      22.419  46.570  50.010  0.00  0.00    +0.000 OA
ATOM      5  CB  LYS J   1      25.001  46.739  50.966  0.00  0.00    +0.000 C 
ATOM      6  CG  LYS J   1      25.364  46.850  49.490  0.00  0.00    +0.000 C 
ATOM      7  CD  LYS J   1      26.566  47.762  49.271  0.00  0.00    +0.000 C 
ATOM      8  CE  LYS J   1      27.851  47.168  49.838  0.00  0.00    +0.000 C 
ATOM      9  NZ  LYS J   1      29.069  47.877  49.355  0.00  0.00    +0.000 N 
ATOM     10  H   LYS J   1      24.157  43.501  51.336  0.00  0.00    +0.000 HD
ATOM     11  H   LYS J   1      25.650  44.203  51.563  0.00  0.00    +0.000 HD
ATOM     12  H   LYS J   1      24.945  44.214  50.054  0.00  0.00    +0.000 HD
ATOM     13  H   LYS J   1      29.130  47.795  48.340  0.00  0.00    +0.000 HD
ATOM     14  H   LYS J   1      29.897  47.459  49.780  0.00  0.00    +0.000 HD
ATOM     15  H   LYS J   1      29.014  48.862  49.614  0.00  0.00    +0.000 HD
TER 
REMARK  Name = /data/user_data/xianyang/t3-aimnet-affinity-balanced/L1/P33981/pocket.pdb
REMARK                            x       y       z     vdW  Elec       q    Type
REMARK                         _______ _______ _______ _____ _____    ______ ____
ATOM      1  N   LYS K   1      30.195  30.796  43.584  0.00  0.00    +0.000 N 
ATOM      2  CA  LYS K   1      29.768  31.579  44.728  0.00  0.00    +0.000 C 
ATOM      3  C   LYS K   1      29.291  32.901  44.158  0.00  0.00    +0.000 C 
ATOM      4  O   LYS K   1      29.574  33.201  43.004  0.00  0.00    +0.000 OA
ATOM      5  CB  LYS K   1      30.930  31.872  45.680  0.00  0.00    +0.000 C 
ATOM      6  CG  LYS K   1      31.743  30.687  46.133  0.00  0.00    +0.000 C 
ATOM      7  CD  LYS K   1      32.981  31.129  46.899  0.00  0.00    +0.000 C 
ATOM      8  CE  LYS K   1      34.028  31.825  46.037  0.00  0.00    +0.000 C 
ATOM      9  NZ  LYS K   1      34.645  30.937  45.011  0.00  0.00    +0.000 N 
ATOM     10  H   LYS K   1      29.396  30.621  42.974  0.00  0.00    +0.000 HD
ATOM     11  H   LYS K   1      30.579  29.907  43.905  0.00  0.00    +0.000 HD
ATOM     12  H   LYS K   1      30.910  31.309  43.069  0.00  0.00    +0.000 HD
ATOM     13  H   LYS K   1      33.926  30.614  44.364  0.00  0.00    +0.000 HD
ATOM     14  H   LYS K   1      35.075  30.134  45.470  0.00  0.00    +0.000 HD
ATOM     15  H   LYS K   1      35.357  31.455  44.496  0.00  0.00    +0.000 HD
TER 
REMARK  Name = /data/user_data/xianyang/t3-aimnet-affinity-balanced/L1/P33981/pocket.pdb
REMARK                            x       y       z     vdW  Elec       q    Type
REMARK                         _______ _______ _______ _____ _____    ______ ____
ATOM      1  N   ALA L   1      30.442  35.792  44.651  0.00  0.00    +0.000 N 
ATOM      2  CA  ALA L   1      31.636  36.558  44.280  0.00  0.00    +0.000 C 
ATOM      3  C   ALA L   1      32.119  36.314  42.846  0.00  0.00    +0.000 C 
ATOM      4  O   ALA L   1      32.848  37.146  42.311  0.00  0.00    +0.000 OA
ATOM      5  CB  ALA L   1      32.783  36.266  45.257  0.00  0.00    +0.000 C 
ATOM      6  N   ASN L   2      31.741  35.184  42.231  0.00  0.00    +0.000 N 
ATOM      7  CA  ASN L   2      32.172  34.876  40.856  0.00  0.00    +0.000 C 
ATOM      8  C   ASN L   2      31.341  35.583  39.798  0.00  0.00    +0.000 C 
ATOM      9  O   ASN L   2      31.632  35.488  38.597  0.00  0.00    +0.000 OA
ATOM     10  CB  ASN L   2      32.106  33.376  40.587  0.00  0.00    +0.000 C 
ATOM     11  CG  ASN L   2      33.000  32.573  41.504  0.00  0.00    +0.000 C 
ATOM     12  OD1 ASN L   2      32.539  31.983  42.466  0.00  0.00    +0.000 OA
ATOM     13  ND2 ASN L   2      34.275  32.543  41.203  0.00  0.00    +0.000 N 
ATOM     14  H   ALA L   1      29.689  35.996  43.994  0.00  0.00    +0.000 HD
ATOM     15  H   ALA L   1      30.150  36.052  45.593  0.00  0.00    +0.000 HD
ATOM     16  H   ALA L   1      30.656  34.795  44.624  0.00  0.00    +0.000 HD
ATOM     17  H   ASN L   2      31.163  34.546  42.709  0.00  0.00    +0.000 HD
ATOM     18  H   ASN L   2      34.607  33.034  40.417  0.00  0.00    +0.000 HD
ATOM     19  H   ASN L   2      34.901  32.030  41.763  0.00  0.00    +0.000 HD
TER 
REMARK  Name = /data/user_data/xianyang/t3-aimnet-affinity-balanced/L1/P33981/pocket.pdb
REMARK                            x       y       z     vdW  Elec       q    Type
REMARK                         _______ _______ _______ _____ _____    ______ ____
ATOM      1  N   LEU M   1      29.539  39.184  38.298  0.00  0.00    +0.000 N 
ATOM      2  CA  LEU M   1      29.745  40.609  38.213  0.00  0.00    +0.000 C 
ATOM      3  C   LEU M   1      28.498  41.256  37.639  0.00  0.00    +0.000 C 
ATOM      4  O   LEU M   1      28.009  40.841  36.579  0.00  0.00    +0.000 OA
ATOM      5  CB  LEU M   1      30.932  40.902  37.292  0.00  0.00    +0.000 C 
ATOM      6  CG  LEU M   1      31.416  42.356  37.245  0.00  0.00    +0.000 C 
ATOM      7  CD2 LEU M   1      31.907  42.813  38.608  0.00  0.00    +0.000 C 
ATOM      8  CD1 LEU M   1      32.524  42.489  36.218  0.00  0.00    +0.000 C 
ATOM      9  H   LEU M   1      30.374  38.742  38.683  0.00  0.00    +0.000 HD
ATOM     10  H   LEU M   1      29.356  38.811  37.367  0.00  0.00    +0.000 HD
ATOM     11  H   LEU M   1      28.742  38.991  38.904  0.00  0.00    +0.000 HD
TER 
REMARK  Name = /data/user_data/xianyang/t3-aimnet-affinity-balanced/L1/P33981/pocket.pdb
REMARK                            x       y       z     vdW  Elec       q    Type
REMARK                         _______ _______ _______ _____ _____    ______ ____
ATOM      1  N   ILE N   1      32.766  35.778  36.025  0.00  0.00    +0.000 N 
ATOM      2  CA  ILE N   1      34.087  36.398  36.058  0.00  0.00    +0.000 C 
ATOM      3  C   ILE N   1      35.190  35.369  35.770  0.00  0.00    +0.000 C 
ATOM      4  O   ILE N   1      36.196  35.692  35.147  0.00  0.00    +0.000 OA
ATOM      5  CB  ILE N   1      34.324  37.037  37.457  0.00  0.00    +0.000 C 
ATOM      6  CG1 ILE N   1      33.455  38.277  37.646  0.00  0.00    +0.000 C 
ATOM      7  CG2 ILE N   1      35.781  37.401  37.672  0.00  0.00    +0.000 C 
ATOM      8  CD1 ILE N   1      33.318  38.683  39.104  0.00  0.00    +0.000 C 
ATOM      9  N   ASP N   2      35.023  34.129  36.226  0.00  0.00    +0.000 N 
ATOM     10  CA  ASP N   2      36.081  33.134  36.016  0.00  0.00    +0.000 C 
ATOM     11  C   ASP N   2      35.545  31.720  35.899  0.00  0.00    +0.000 C 
ATOM     12  O   ASP N   2      34.349  31.493  36.061  0.00  0.00    +0.000 OA
ATOM     13  CB  ASP N   2      37.075  33.210  37.158  0.00  0.00    +0.000 C 
ATOM     14  CG  ASP N   2      36.591  32.478  38.386  0.00  0.00    +0.000 C 
ATOM     15  OD1 ASP N   2      35.439  32.728  38.796  0.00  0.00    +0.000 OA
ATOM     16  OD2 ASP N   2      37.359  31.638  38.912  0.00  0.00    +0.000 OA
ATOM     17  H   ILE N   1      32.610  35.359  35.108  0.00  0.00    +0.000 HD
ATOM     18  H   ILE N   1      32.053  36.486  36.201  0.00  0.00    +0.000 HD
ATOM     19  H   ILE N   1      32.712  35.055  36.743  0.00  0.00    +0.000 HD
ATOM     20  H   ASP N   2      34.196  33.882  36.700  0.00  0.00    +0.000 HD
TER 
REMARK  Name = /data/user_data/xianyang/t3-aimnet-affinity-balanced/L1/P33981/pocket.pdb
REMARK                            x       y       z     vdW  Elec       q    Type
REMARK                         _______ _______ _______ _____ _____    ______ ____
ATOM      1  N   GLN O   1      43.932  28.475  43.193  0.00  0.00    +0.000 N 
ATOM      2  CA  GLN O   1      43.429  29.435  44.187  0.00  0.00    +0.000 C 
ATOM      3  C   GLN O   1      42.278  30.269  43.611  0.00  0.00    +0.000 C 
ATOM      4  O   GLN O   1      42.242  31.496  43.737  0.00  0.00    +0.000 OA
ATOM      5  CB  GLN O   1      44.551  30.333  44.745  0.00  0.00    +0.000 C 
ATOM      6  CG  GLN O   1      45.830  29.595  45.150  0.00  0.00    +0.000 C 
ATOM      7  CD  GLN O   1      47.012  29.843  44.214  0.00  0.00    +0.000 C 
ATOM      8  OE1 GLN O   1      46.996  30.765  43.394  0.00  0.00    +0.000 OA
ATOM      9  NE2 GLN O   1      48.056  29.026  44.350  0.00  0.00    +0.000 N 
ATOM     10  H   GLN O   1      43.160  27.903  42.851  0.00  0.00    +0.000 HD
ATOM     11  H   GLN O   1      44.634  27.875  43.625  0.00  0.00    +0.000 HD
ATOM     12  H   GLN O   1      44.351  28.981  42.413  0.00  0.00    +0.000 HD
ATOM     13  H   GLN O   1      48.847  29.138  43.774  0.00  0.00    +0.000 HD
ATOM     14  H   GLN O   1      48.037  28.311  45.026  0.00  0.00    +0.000 HD
TER 
