REMARK  Name = /data/user_data/xianyang/t3-aimnet-affinity-balanced/L1/P49327/pocket.pdb
REMARK                            x       y       z     vdW  Elec       q    Type
REMARK                         _______ _______ _______ _____ _____    ______ ____
ATOM      1  N   HIS A   1     131.528 188.857 116.229  0.00  0.00    +0.000 N 
ATOM      2  CA  HIS A   1     130.291 189.427 115.711  0.00  0.00    +0.000 C 
ATOM      3  C   HIS A   1     129.793 188.575 114.550  0.00  0.00    +0.000 C 
ATOM      4  O   HIS A   1     130.538 188.369 113.582  0.00  0.00    +0.000 OA
ATOM      5  CB  HIS A   1     130.513 190.868 115.269  0.00  0.00    +0.000 C 
ATOM      6  CG  HIS A   1     129.247 191.635 115.051  0.00  0.00    +0.000 C 
ATOM      7  ND1 HIS A   1     128.271 191.227 114.167  0.00  0.00    +0.000 NA
ATOM      8  CD2 HIS A   1     128.795 192.783 115.607  0.00  0.00    +0.000 C 
ATOM      9  CE1 HIS A   1     127.273 192.092 114.187  0.00  0.00    +0.000 C 
ATOM     10  NE2 HIS A   1     127.566 193.046 115.052  0.00  0.00    +0.000 NA
ATOM     11  N   PRO A   2     128.561 188.061 114.598  0.00  0.00    +0.000 N 
ATOM     12  CA  PRO A   2     128.155 187.071 113.585  0.00  0.00    +0.000 C 
ATOM     13  C   PRO A   2     127.893 187.661 112.212  0.00  0.00    +0.000 C 
ATOM     14  O   PRO A   2     128.339 187.092 111.208  0.00  0.00    +0.000 OA
ATOM     15  CB  PRO A   2     126.886 186.461 114.193  0.00  0.00    +0.000 C 
ATOM     16  CG  PRO A   2     126.338 187.535 115.066  0.00  0.00    +0.000 C 
ATOM     17  CD  PRO A   2     127.519 188.282 115.615  0.00  0.00    +0.000 C 
ATOM     18  N   LEU A   3     127.186 188.784 112.131  0.00  0.00    +0.000 N 
ATOM     19  CA  LEU A   3     126.753 189.333 110.854  0.00  0.00    +0.000 C 
ATOM     20  C   LEU A   3     127.702 190.381 110.293  0.00  0.00    +0.000 C 
ATOM     21  O   LEU A   3     127.430 190.927 109.220  0.00  0.00    +0.000 OA
ATOM     22  CB  LEU A   3     125.349 189.930 110.986  0.00  0.00    +0.000 C 
ATOM     23  CG  LEU A   3     124.237 188.938 111.321  0.00  0.00    +0.000 C 
ATOM     24  CD2 LEU A   3     122.948 189.670 111.653  0.00  0.00    +0.000 C 
ATOM     25  CD1 LEU A   3     124.028 187.974 110.167  0.00  0.00    +0.000 C 
ATOM     26  H   HIS A   1     131.363 187.894 116.520  0.00  0.00    +0.000 HD
ATOM     27  H   HIS A   1     131.846 189.404 117.029  0.00  0.00    +0.000 HD
ATOM     28  H   HIS A   1     132.242 188.874 115.500  0.00  0.00    +0.000 HD
ATOM     29  H   LEU A   3     126.948 189.259 112.960  0.00  0.00    +0.000 HD
TER 
REMARK  Name = /data/user_data/xianyang/t3-aimnet-affinity-balanced/L1/P49327/pocket.pdb
REMARK                            x       y       z     vdW  Elec       q    Type
REMARK                         _______ _______ _______ _____ _____    ______ ____
ATOM      1  N   ARG B   1     119.224 197.582 111.806  0.00  0.00    +0.000 N 
ATOM      2  CA  ARG B   1     119.349 196.723 110.637  0.00  0.00    +0.000 C 
ATOM      3  C   ARG B   1     118.039 196.521 109.890  0.00  0.00    +0.000 C 
ATOM      4  O   ARG B   1     118.032 195.831 108.865  0.00  0.00    +0.000 OA
ATOM      5  CB  ARG B   1     119.926 195.357 111.029  0.00  0.00    +0.000 C 
ATOM      6  CG  ARG B   1     119.072 194.569 111.993  0.00  0.00    +0.000 C 
ATOM      7  CD  ARG B   1     119.657 194.645 113.390  0.00  0.00    +0.000 C 
ATOM      8  NE  ARG B   1     121.087 194.347 113.415  0.00  0.00    +0.000 N 
ATOM      9  CZ  ARG B   1     121.628 193.179 113.095  0.00  0.00    +0.000 C 
ATOM     10  NH1 ARG B   1     120.885 192.141 112.743  0.00  0.00    +0.000 N 
ATOM     11  NH2 ARG B   1     122.950 193.043 113.142  0.00  0.00    +0.000 N 
ATOM     12  H   ARG B   1     118.839 198.484 111.525  0.00  0.00    +0.000 HD
ATOM     13  H   ARG B   1     120.143 197.720 112.226  0.00  0.00    +0.000 HD
ATOM     14  H   ARG B   1     118.602 197.144 112.485  0.00  0.00    +0.000 HD
ATOM     15  H   ARG B   1     121.696 195.069 113.691  0.00  0.00    +0.000 HD
ATOM     16  H   ARG B   1     121.313 191.286 112.510  0.00  0.00    +0.000 HD
ATOM     17  H   ARG B   1     119.905 192.225 112.714  0.00  0.00    +0.000 HD
ATOM     18  H   ARG B   1     123.365 192.182 112.907  0.00  0.00    +0.000 HD
ATOM     19  H   ARG B   1     123.514 193.804 113.412  0.00  0.00    +0.000 HD
TER 
REMARK  Name = /data/user_data/xianyang/t3-aimnet-affinity-balanced/L1/P49327/pocket.pdb
REMARK                            x       y       z     vdW  Elec       q    Type
REMARK                         _______ _______ _______ _____ _____    ______ ____
ATOM      1  N   LEU C   1     105.803 186.275 121.203  0.00  0.00    +0.000 N 
ATOM      2  CA  LEU C   1     106.449 186.843 120.028  0.00  0.00    +0.000 C 
ATOM      3  C   LEU C   1     105.409 187.503 119.138  0.00  0.00    +0.000 C 
ATOM      4  O   LEU C   1     104.424 186.868 118.746  0.00  0.00    +0.000 OA
ATOM      5  CB  LEU C   1     107.220 185.774 119.254  0.00  0.00    +0.000 C 
ATOM      6  CG  LEU C   1     108.571 185.403 119.861  0.00  0.00    +0.000 C 
ATOM      7  CD1 LEU C   1     109.306 184.443 118.954  0.00  0.00    +0.000 C 
ATOM      8  CD2 LEU C   1     109.400 186.650 120.106  0.00  0.00    +0.000 C 
ATOM      9  H   LEU C   1     105.297 187.008 121.700  0.00  0.00    +0.000 HD
ATOM     10  H   LEU C   1     106.510 185.872 121.818  0.00  0.00    +0.000 HD
ATOM     11  H   LEU C   1     105.150 185.547 120.913  0.00  0.00    +0.000 HD
TER 
REMARK  Name = /data/user_data/xianyang/t3-aimnet-affinity-balanced/L1/P49327/pocket.pdb
REMARK                            x       y       z     vdW  Elec       q    Type
REMARK                         _______ _______ _______ _____ _____    ______ ____
ATOM      1  N   ASP D   1     106.732 189.152 116.308  0.00  0.00    +0.000 N 
ATOM      2  CA  ASP D   1     107.780 189.554 115.381  0.00  0.00    +0.000 C 
ATOM      3  C   ASP D   1     107.187 190.017 114.059  0.00  0.00    +0.000 C 
ATOM      4  O   ASP D   1     106.288 189.379 113.505  0.00  0.00    +0.000 OA
ATOM      5  CB  ASP D   1     108.750 188.397 115.149  0.00  0.00    +0.000 C 
ATOM      6  CG  ASP D   1     108.050 187.058 115.071  0.00  0.00    +0.000 C 
ATOM      7  OD2 ASP D   1     106.843 186.998 115.380  0.00  0.00    +0.000 OA
ATOM      8  OD1 ASP D   1     108.707 186.064 114.699  0.00  0.00    +0.000 OA
ATOM      9  N   GLY D   2     107.697 191.134 113.560  0.00  0.00    +0.000 N 
ATOM     10  CA  GLY D   2     107.250 191.671 112.289  0.00  0.00    +0.000 C 
ATOM     11  C   GLY D   2     107.972 192.969 112.013  0.00  0.00    +0.000 C 
ATOM     12  O   GLY D   2     108.574 193.577 112.905  0.00  0.00    +0.000 OA
ATOM     13  H   ASP D   1     106.091 189.932 116.455  0.00  0.00    +0.000 HD
ATOM     14  H   ASP D   1     107.151 188.883 117.198  0.00  0.00    +0.000 HD
ATOM     15  H   ASP D   1     106.220 188.360 115.920  0.00  0.00    +0.000 HD
ATOM     16  H   GLY D   2     108.396 191.610 114.064  0.00  0.00    +0.000 HD
TER 
REMARK  Name = /data/user_data/xianyang/t3-aimnet-affinity-balanced/L1/P49327/pocket.pdb
REMARK                            x       y       z     vdW  Elec       q    Type
REMARK                         _______ _______ _______ _____ _____    ______ ____
ATOM      1  N   SER E   1     117.663 188.061 125.125  0.00  0.00    +0.000 N 
ATOM      2  CA  SER E   1     118.081 187.502 123.851  0.00  0.00    +0.000 C 
ATOM      3  C   SER E   1     119.230 188.314 123.274  0.00  0.00    +0.000 C 
ATOM      4  O   SER E   1     119.409 189.493 123.588  0.00  0.00    +0.000 OA
ATOM      5  CB  SER E   1     116.921 187.462 122.850  0.00  0.00    +0.000 C 
ATOM      6  OG  SER E   1     117.402 187.324 121.525  0.00  0.00    +0.000 OA
ATOM      7  N   VAL E   2     120.014 187.655 122.417  0.00  0.00    +0.000 N 
ATOM      8  CA  VAL E   2     121.058 188.337 121.665  0.00  0.00    +0.000 C 
ATOM      9  C   VAL E   2     120.456 189.358 120.711  0.00  0.00    +0.000 C 
ATOM     10  O   VAL E   2     121.147 190.285 120.271  0.00  0.00    +0.000 OA
ATOM     11  CB  VAL E   2     121.929 187.295 120.930  0.00  0.00    +0.000 C 
ATOM     12  CG1 VAL E   2     123.062 187.954 120.176  0.00  0.00    +0.000 C 
ATOM     13  CG2 VAL E   2     122.497 186.312 121.925  0.00  0.00    +0.000 C 
ATOM     14  N   SER E   3     119.168 189.216 120.387  0.00  0.00    +0.000 N 
ATOM     15  CA  SER E   3     118.477 190.249 119.624  0.00  0.00    +0.000 C 
ATOM     16  CB  SER E   3     118.589 191.597 120.318  0.00  0.00    +0.000 C 
ATOM     17  OG  SER E   3     118.901 192.607 119.680  0.00  0.00    +0.000 OA
ATOM     18  C   SER E   3     117.010 189.867 119.431  0.00  0.00    +0.000 C 
ATOM     19  O   SER E   3     116.885 188.524 119.001  0.00  0.00    +0.000 OA
ATOM     20  H   SER E   1     116.893 187.509 125.502  0.00  0.00    +0.000 HD
ATOM     21  H   SER E   1     117.356 189.024 124.989  0.00  0.00    +0.000 HD
ATOM     22  H   SER E   1     118.446 188.042 125.778  0.00  0.00    +0.000 HD
ATOM     23  H   SER E   1     117.899 186.495 121.446  0.00  0.00    +0.000 HD
ATOM     24  H   VAL E   2     119.883 186.687 122.291  0.00  0.00    +0.000 HD
ATOM     25  H   SER E   3     118.681 188.407 120.666  0.00  0.00    +0.000 HD
ATOM     26  H   SER E   3     117.263 187.933 119.671  0.00  0.00    +0.000 HD
TER 
REMARK  Name = /data/user_data/xianyang/t3-aimnet-affinity-balanced/L1/P49327/pocket.pdb
REMARK                            x       y       z     vdW  Elec       q    Type
REMARK                         _______ _______ _______ _____ _____    ______ ____
ATOM      1  N   ARG F   1     122.581 192.822 120.141  0.00  0.00    +0.000 N 
ATOM      2  CA  ARG F   1     123.111 193.328 118.881  0.00  0.00    +0.000 C 
ATOM      3  C   ARG F   1     122.028 193.827 117.939  0.00  0.00    +0.000 C 
ATOM      4  O   ARG F   1     122.155 194.927 117.389  0.00  0.00    +0.000 OA
ATOM      5  CB  ARG F   1     123.955 192.247 118.191  0.00  0.00    +0.000 C 
ATOM      6  CG  ARG F   1     124.300 191.077 119.086  0.00  0.00    +0.000 C 
ATOM      7  CD  ARG F   1     125.398 190.225 118.479  0.00  0.00    +0.000 C 
ATOM      8  NE  ARG F   1     126.701 190.870 118.585  0.00  0.00    +0.000 N 
ATOM      9  CZ  ARG F   1     127.457 190.857 119.674  0.00  0.00    +0.000 C 
ATOM     10  NH2 ARG F   1     127.076 190.228 120.773  0.00  0.00    +0.000 N 
ATOM     11  NH1 ARG F   1     128.626 191.491 119.659  0.00  0.00    +0.000 N 
ATOM     12  N   GLY F   2     120.966 193.057 117.735  0.00  0.00    +0.000 N 
ATOM     13  CA  GLY F   2     119.914 193.477 116.837  0.00  0.00    +0.000 C 
ATOM     14  C   GLY F   2     119.443 192.368 115.925  0.00  0.00    +0.000 C 
ATOM     15  O   GLY F   2     120.254 191.680 115.300  0.00  0.00    +0.000 OA
ATOM     16  N   ASN F   3     118.130 192.178 115.844  0.00  0.00    +0.000 N 
ATOM     17  CA  ASN F   3     117.533 191.203 114.942  0.00  0.00    +0.000 C 
ATOM     18  C   ASN F   3     116.352 191.863 114.251  0.00  0.00    +0.000 C 
ATOM     19  O   ASN F   3     115.362 192.207 114.904  0.00  0.00    +0.000 OA
ATOM     20  CB  ASN F   3     117.090 189.946 115.694  0.00  0.00    +0.000 C 
ATOM     21  CG  ASN F   3     116.656 188.834 114.762  0.00  0.00    +0.000 C 
ATOM     22  OD1 ASN F   3     115.479 188.486 114.697  0.00  0.00    +0.000 OA
ATOM     23  ND2 ASN F   3     117.610 188.271 114.032  0.00  0.00    +0.000 N 
ATOM     24  N   ALA F   4     116.462 192.045 112.938  0.00  0.00    +0.000 N 
ATOM     25  CA  ALA F   4     115.405 192.705 112.190  0.00  0.00    +0.000 C 
ATOM     26  C   ALA F   4     114.127 191.880 112.233  0.00  0.00    +0.000 C 
ATOM     27  O   ALA F   4     114.152 190.655 112.090  0.00  0.00    +0.000 OA
ATOM     28  CB  ALA F   4     115.840 192.930 110.743  0.00  0.00    +0.000 C 
ATOM     29  N   GLY F   5     113.003 192.561 112.435  0.00  0.00    +0.000 N 
ATOM     30  CA  GLY F   5     111.708 191.930 112.480  0.00  0.00    +0.000 C 
ATOM     31  C   GLY F   5     111.132 191.754 113.870  0.00  0.00    +0.000 C 
ATOM     32  O   GLY F   5     109.936 191.478 113.994  0.00  0.00    +0.000 OA
ATOM     33  N   GLN F   6     111.947 191.889 114.916  0.00  0.00    +0.000 N 
ATOM     34  CA  GLN F   6     111.462 191.831 116.297  0.00  0.00    +0.000 C 
ATOM     35  C   GLN F   6     112.054 193.015 117.052  0.00  0.00    +0.000 C 
ATOM     36  O   GLN F   6     113.088 192.891 117.710  0.00  0.00    +0.000 OA
ATOM     37  CB  GLN F   6     111.822 190.512 116.957  0.00  0.00    +0.000 C 
ATOM     38  CG  GLN F   6     113.059 189.858 116.393  0.00  0.00    +0.000 C 
ATOM     39  CD  GLN F   6     113.417 188.594 117.136  0.00  0.00    +0.000 C 
ATOM     40  OE1 GLN F   6     114.579 188.363 117.463  0.00  0.00    +0.000 OA
ATOM     41  NE2 GLN F   6     112.419 187.759 117.395  0.00  0.00    +0.000 N 
ATOM     42  H   ARG F   1     122.022 193.547 120.591  0.00  0.00    +0.000 HD
ATOM     43  H   ARG F   1     123.353 192.559 120.753  0.00  0.00    +0.000 HD
ATOM     44  H   ARG F   1     121.997 192.006 119.961  0.00  0.00    +0.000 HD
ATOM     45  H   ARG F   1     127.043 191.347 117.795  0.00  0.00    +0.000 HD
ATOM     46  H   ARG F   1     126.213 189.755 120.795  0.00  0.00    +0.000 HD
ATOM     47  H   ARG F   1     127.656 190.232 121.569  0.00  0.00    +0.000 HD
ATOM     48  H   ARG F   1     128.920 191.963 118.846  0.00  0.00    +0.000 HD
ATOM     49  H   ARG F   1     129.198 191.489 120.461  0.00  0.00    +0.000 HD
ATOM     50  H   GLY F   2     120.894 192.192 118.200  0.00  0.00    +0.000 HD
ATOM     51  H   ASN F   3     117.538 192.718 116.416  0.00  0.00    +0.000 HD
ATOM     52  H   ASN F   3     117.387 187.543 113.408  0.00  0.00    +0.000 HD
ATOM     53  H   ASN F   3     118.541 188.581 114.114  0.00  0.00    +0.000 HD
ATOM     54  H   ALA F   4     117.268 191.729 112.468  0.00  0.00    +0.000 HD
ATOM     55  H   GLY F   5     113.058 193.536 112.559  0.00  0.00    +0.000 HD
ATOM     56  H   GLN F   6     112.908 192.033 114.755  0.00  0.00    +0.000 HD
ATOM     57  H   GLN F   6     111.503 187.985 117.114  0.00  0.00    +0.000 HD
ATOM     58  H   GLN F   6     112.595 186.914 117.868  0.00  0.00    +0.000 HD
TER 
REMARK  Name = /data/user_data/xianyang/t3-aimnet-affinity-balanced/L1/P49327/pocket.pdb
REMARK                            x       y       z     vdW  Elec       q    Type
REMARK                         _______ _______ _______ _____ _____    ______ ____
ATOM      1  N   TYR G   1     110.442 192.795 120.862  0.00  0.00    +0.000 N 
ATOM      2  CA  TYR G   1     111.162 191.768 121.606  0.00  0.00    +0.000 C 
ATOM      3  C   TYR G   1     112.450 192.328 122.193  0.00  0.00    +0.000 C 
ATOM      4  O   TYR G   1     112.755 192.122 123.375  0.00  0.00    +0.000 OA
ATOM      5  CB  TYR G   1     111.460 190.585 120.685  0.00  0.00    +0.000 C 
ATOM      6  CG  TYR G   1     111.990 189.362 121.389  0.00  0.00    +0.000 A 
ATOM      7  CD2 TYR G   1     111.403 188.900 122.555  0.00  0.00    +0.000 A 
ATOM      8  CD1 TYR G   1     113.076 188.666 120.882  0.00  0.00    +0.000 A 
ATOM      9  CE2 TYR G   1     111.883 187.780 123.195  0.00  0.00    +0.000 A 
ATOM     10  CE1 TYR G   1     113.562 187.546 121.517  0.00  0.00    +0.000 A 
ATOM     11  CZ  TYR G   1     112.963 187.107 122.672  0.00  0.00    +0.000 A 
ATOM     12  OH  TYR G   1     113.447 185.990 123.308  0.00  0.00    +0.000 OA
ATOM     13  H   TYR G   1     109.584 192.398 120.478  0.00  0.00    +0.000 HD
ATOM     14  H   TYR G   1     111.028 193.137 120.101  0.00  0.00    +0.000 HD
ATOM     15  H   TYR G   1     110.210 193.567 121.486  0.00  0.00    +0.000 HD
ATOM     16  H   TYR G   1     114.182 185.531 122.953  0.00  0.00    +0.000 HD
TER 
REMARK  Name = /data/user_data/xianyang/t3-aimnet-affinity-balanced/L1/P49327/pocket.pdb
REMARK                            x       y       z     vdW  Elec       q    Type
REMARK                         _______ _______ _______ _____ _____    ______ ____
ATOM      1  N   ASN H   1     113.420 192.823 126.169  0.00  0.00    +0.000 N 
ATOM      2  CA  ASN H   1     114.644 192.245 126.711  0.00  0.00    +0.000 C 
ATOM      3  C   ASN H   1     115.543 193.313 127.326  0.00  0.00    +0.000 C 
ATOM      4  O   ASN H   1     116.119 193.104 128.400  0.00  0.00    +0.000 OA
ATOM      5  CB  ASN H   1     115.384 191.477 125.620  0.00  0.00    +0.000 C 
ATOM      6  CG  ASN H   1     114.693 190.185 125.252  0.00  0.00    +0.000 C 
ATOM      7  OD1 ASN H   1     114.195 189.468 126.116  0.00  0.00    +0.000 OA
ATOM      8  ND2 ASN H   1     114.658 189.879 123.962  0.00  0.00    +0.000 N 
ATOM      9  H   ASN H   1     112.844 192.084 125.767  0.00  0.00    +0.000 HD
ATOM     10  H   ASN H   1     113.656 193.502 125.445  0.00  0.00    +0.000 HD
ATOM     11  H   ASN H   1     112.904 193.288 126.916  0.00  0.00    +0.000 HD
ATOM     12  H   ASN H   1     115.070 190.482 123.302  0.00  0.00    +0.000 HD
ATOM     13  H   ASN H   1     114.220 189.049 123.665  0.00  0.00    +0.000 HD
TER 
REMARK  Name = /data/user_data/xianyang/t3-aimnet-affinity-balanced/L1/P49327/pocket.pdb
REMARK                            x       y       z     vdW  Elec       q    Type
REMARK                         _______ _______ _______ _____ _____    ______ ____
ATOM      1  N   TRP I   1     120.573 185.109 125.608  0.00  0.00    +0.000 N 
ATOM      2  CA  TRP I   1     120.689 183.797 124.995  0.00  0.00    +0.000 C 
ATOM      3  C   TRP I   1     120.651 183.900 123.479  0.00  0.00    +0.000 C 
ATOM      4  O   TRP I   1     119.829 184.623 122.909  0.00  0.00    +0.000 OA
ATOM      5  CB  TRP I   1     119.561 182.886 125.476  0.00  0.00    +0.000 C 
ATOM      6  CG  TRP I   1     119.787 182.331 126.836  0.00  0.00    +0.000 C 
ATOM      7  CD1 TRP I   1     119.025 182.544 127.941  0.00  0.00    +0.000 C 
ATOM      8  CD2 TRP I   1     120.852 181.467 127.241  0.00  0.00    +0.000 A 
ATOM      9  NE1 TRP I   1     119.548 181.867 129.013  0.00  0.00    +0.000 NA
ATOM     10  CE2 TRP I   1     120.670 181.196 128.608  0.00  0.00    +0.000 A 
ATOM     11  CE3 TRP I   1     121.941 180.896 126.579  0.00  0.00    +0.000 A 
ATOM     12  CZ2 TRP I   1     121.535 180.381 129.325  0.00  0.00    +0.000 A 
ATOM     13  CZ3 TRP I   1     122.796 180.088 127.292  0.00  0.00    +0.000 A 
ATOM     14  CH2 TRP I   1     122.590 179.838 128.651  0.00  0.00    +0.000 A 
ATOM     15  N   GLY I   2     121.548 183.170 122.826  0.00  0.00    +0.000 N 
ATOM     16  CA  GLY I   2     121.473 182.979 121.396  0.00  0.00    +0.000 C 
ATOM     17  C   GLY I   2     120.417 181.949 121.058  0.00  0.00    +0.000 C 
ATOM     18  O   GLY I   2     119.646 181.501 121.907  0.00  0.00    +0.000 OA
ATOM     19  N   ALA I   3     120.383 181.570 119.785  0.00  0.00    +0.000 N 
ATOM     20  CA  ALA I   3     119.439 180.549 119.355  0.00  0.00    +0.000 C 
ATOM     21  C   ALA I   3     119.671 179.264 120.138  0.00  0.00    +0.000 C 
ATOM     22  O   ALA I   3     120.810 178.821 120.306  0.00  0.00    +0.000 OA
ATOM     23  CB  ALA I   3     119.577 180.295 117.856  0.00  0.00    +0.000 C 
ATOM     24  H   TRP I   1     121.331 185.706 125.279  0.00  0.00    +0.000 HD
ATOM     25  H   TRP I   1     120.629 185.017 126.622  0.00  0.00    +0.000 HD
ATOM     26  H   TRP I   1     119.677 185.525 125.354  0.00  0.00    +0.000 HD
ATOM     27  H   GLY I   2     122.282 182.749 123.329  0.00  0.00    +0.000 HD
ATOM     28  H   ALA I   3     120.996 181.980 119.133  0.00  0.00    +0.000 HD
TER 
REMARK  Name = /data/user_data/xianyang/t3-aimnet-affinity-balanced/L1/P49327/pocket.pdb
REMARK                            x       y       z     vdW  Elec       q    Type
REMARK                         _______ _______ _______ _____ _____    ______ ____
ATOM      1  N   ILE J   1     111.430 177.979 121.018  0.00  0.00    +0.000 N 
ATOM      2  CA  ILE J   1     110.214 178.374 120.321  0.00  0.00    +0.000 C 
ATOM      3  C   ILE J   1     110.466 178.298 118.822  0.00  0.00    +0.000 C 
ATOM      4  O   ILE J   1     109.621 177.811 118.063  0.00  0.00    +0.000 OA
ATOM      5  CB  ILE J   1     109.745 179.779 120.740  0.00  0.00    +0.000 C 
ATOM      6  CG1 ILE J   1     108.716 180.314 119.746  0.00  0.00    +0.000 C 
ATOM      7  CG2 ILE J   1     110.918 180.737 120.827  0.00  0.00    +0.000 C 
ATOM      8  CD1 ILE J   1     107.863 181.427 120.300  0.00  0.00    +0.000 C 
ATOM      9  N   LEU J   2     111.638 178.765 118.383  0.00  0.00    +0.000 N 
ATOM     10  CA  LEU J   2     111.939 178.754 116.956  0.00  0.00    +0.000 C 
ATOM     11  C   LEU J   2     112.271 177.350 116.464  0.00  0.00    +0.000 C 
ATOM     12  O   LEU J   2     112.060 177.029 115.289  0.00  0.00    +0.000 OA
ATOM     13  CB  LEU J   2     113.071 179.739 116.645  0.00  0.00    +0.000 C 
ATOM     14  CG  LEU J   2     114.366 179.850 117.462  0.00  0.00    +0.000 C 
ATOM     15  CD2 LEU J   2     115.157 178.558 117.545  0.00  0.00    +0.000 C 
ATOM     16  CD1 LEU J   2     115.233 180.955 116.888  0.00  0.00    +0.000 C 
ATOM     17  H   ILE J   1     111.708 177.046 120.714  0.00  0.00    +0.000 HD
ATOM     18  H   ILE J   1     111.259 177.973 122.023  0.00  0.00    +0.000 HD
ATOM     19  H   ILE J   1     112.175 178.642 120.804  0.00  0.00    +0.000 HD
ATOM     20  H   LEU J   2     112.299 179.117 119.023  0.00  0.00    +0.000 HD
TER 
REMARK  Name = /data/user_data/xianyang/t3-aimnet-affinity-balanced/L1/P49327/pocket.pdb
REMARK                            x       y       z     vdW  Elec       q    Type
REMARK                         _______ _______ _______ _____ _____    ______ ____
ATOM      1  N   THR K   1     108.761 175.199 116.290  0.00  0.00    +0.000 N 
ATOM      2  CA  THR K   1     107.939 175.671 115.182  0.00  0.00    +0.000 C 
ATOM      3  C   THR K   1     108.542 175.321 113.827  0.00  0.00    +0.000 C 
ATOM      4  O   THR K   1     107.968 174.525 113.076  0.00  0.00    +0.000 OA
ATOM      5  CB  THR K   1     107.729 177.184 115.275  0.00  0.00    +0.000 C 
ATOM      6  OG1 THR K   1     108.997 177.840 115.388  0.00  0.00    +0.000 OA
ATOM      7  CG2 THR K   1     106.861 177.532 116.476  0.00  0.00    +0.000 C 
ATOM      8  N   ALA K   2     109.697 175.904 113.505  0.00  0.00    +0.000 N 
ATOM      9  CA  ALA K   2     110.241 175.769 112.159  0.00  0.00    +0.000 C 
ATOM     10  C   ALA K   2     111.625 175.133 112.123  0.00  0.00    +0.000 C 
ATOM     11  O   ALA K   2     111.837 174.140 111.419  0.00  0.00    +0.000 OA
ATOM     12  CB  ALA K   2     110.290 177.140 111.480  0.00  0.00    +0.000 C 
ATOM     13  H   THR K   1     108.890 174.190 116.212  0.00  0.00    +0.000 HD
ATOM     14  H   THR K   1     108.298 175.415 117.173  0.00  0.00    +0.000 HD
ATOM     15  H   THR K   1     109.670 175.662 116.260  0.00  0.00    +0.000 HD
ATOM     16  H   THR K   1     109.447 177.538 116.193  0.00  0.00    +0.000 HD
ATOM     17  H   ALA K   2     110.185 176.429 114.180  0.00  0.00    +0.000 HD
TER 
REMARK  Name = /data/user_data/xianyang/t3-aimnet-affinity-balanced/L1/P49327/pocket.pdb
REMARK                            x       y       z     vdW  Elec       q    Type
REMARK                         _______ _______ _______ _____ _____    ______ ____
ATOM      1  N   VAL L   1     121.176 180.726 111.897  0.00  0.00    +0.000 N 
ATOM      2  CA  VAL L   1     120.167 181.750 112.142  0.00  0.00    +0.000 C 
ATOM      3  C   VAL L   1     120.892 183.047 112.472  0.00  0.00    +0.000 C 
ATOM      4  O   VAL L   1     121.538 183.158 113.520  0.00  0.00    +0.000 OA
ATOM      5  CB  VAL L   1     119.213 181.345 113.272  0.00  0.00    +0.000 C 
ATOM      6  CG2 VAL L   1     118.120 182.387 113.437  0.00  0.00    +0.000 C 
ATOM      7  CG1 VAL L   1     118.614 179.977 112.994  0.00  0.00    +0.000 C 
ATOM      8  N   ALA L   2     120.780 184.029 111.576  0.00  0.00    +0.000 N 
ATOM      9  CA  ALA L   2     121.393 185.345 111.759  0.00  0.00    +0.000 C 
ATOM     10  C   ALA L   2     122.889 185.226 112.033  0.00  0.00    +0.000 C 
ATOM     11  O   ALA L   2     123.464 185.987 112.814  0.00  0.00    +0.000 OA
ATOM     12  CB  ALA L   2     120.693 186.127 112.871  0.00  0.00    +0.000 C 
ATOM     13  N   GLY L   3     123.527 184.258 111.382  0.00  0.00    +0.000 N 
ATOM     14  CA  GLY L   3     124.946 184.033 111.547  0.00  0.00    +0.000 C 
ATOM     15  C   GLY L   3     125.342 183.287 112.801  0.00  0.00    +0.000 C 
ATOM     16  O   GLY L   3     126.544 183.138 113.057  0.00  0.00    +0.000 OA
ATOM     17  N   THR L   4     124.383 182.813 113.591  0.00  0.00    +0.000 N 
ATOM     18  CA  THR L   4     124.662 182.111 114.835  0.00  0.00    +0.000 C 
ATOM     19  C   THR L   4     124.034 180.726 114.806  0.00  0.00    +0.000 C 
ATOM     20  O   THR L   4     122.868 180.570 114.431  0.00  0.00    +0.000 OA
ATOM     21  CB  THR L   4     124.133 182.886 116.047  0.00  0.00    +0.000 C 
ATOM     22  OG1 THR L   4     122.716 183.056 115.926  0.00  0.00    +0.000 OA
ATOM     23  CG2 THR L   4     124.798 184.246 116.144  0.00  0.00    +0.000 C 
ATOM     24  H   VAL L   1     121.791 181.028 111.142  0.00  0.00    +0.000 HD
ATOM     25  H   VAL L   1     120.718 179.853 111.634  0.00  0.00    +0.000 HD
ATOM     26  H   VAL L   1     121.725 180.580 112.744  0.00  0.00    +0.000 HD
ATOM     27  H   ALA L   2     120.262 183.861 110.756  0.00  0.00    +0.000 HD
ATOM     28  H   GLY L   3     123.019 183.678 110.770  0.00  0.00    +0.000 HD
ATOM     29  H   THR L   4     123.445 182.942 113.323  0.00  0.00    +0.000 HD
ATOM     30  H   THR L   4     122.518 183.561 115.122  0.00  0.00    +0.000 HD
TER 
