REMARK  Name = /data/user_data/xianyang/t3-aimnet-affinity-balanced/L1/Q08499/pocket.pdb
REMARK                            x       y       z     vdW  Elec       q    Type
REMARK                         _______ _______ _______ _____ _____    ______ ____
ATOM      1  N   TYR A   1     -20.650  14.374 -69.820  0.00  0.00    +0.000 N 
ATOM      2  CA  TYR A   1     -20.920  12.941 -69.908  0.00  0.00    +0.000 C 
ATOM      3  C   TYR A   1     -21.930  12.470 -68.868  0.00  0.00    +0.000 C 
ATOM      4  O   TYR A   1     -23.012  12.008 -69.225  0.00  0.00    +0.000 OA
ATOM      5  CB  TYR A   1     -19.619  12.155 -69.786  0.00  0.00    +0.000 C 
ATOM      6  CG  TYR A   1     -19.848  10.683 -69.942  0.00  0.00    +0.000 A 
ATOM      7  CD1 TYR A   1     -19.833  10.089 -71.203  0.00  0.00    +0.000 A 
ATOM      8  CD2 TYR A   1     -20.105   9.885 -68.834  0.00  0.00    +0.000 A 
ATOM      9  CE1 TYR A   1     -20.058   8.732 -71.349  0.00  0.00    +0.000 A 
ATOM     10  CE2 TYR A   1     -20.334   8.534 -68.969  0.00  0.00    +0.000 A 
ATOM     11  CZ  TYR A   1     -20.325   7.964 -70.225  0.00  0.00    +0.000 A 
ATOM     12  OH  TYR A   1     -20.539   6.615 -70.334  0.00  0.00    +0.000 OA
ATOM     13  N   HIS A   2     -21.584  12.519 -67.579  0.00  0.00    +0.000 N 
ATOM     14  CA  HIS A   2     -22.455  12.018 -66.523  0.00  0.00    +0.000 C 
ATOM     15  C   HIS A   2     -23.678  12.899 -66.326  0.00  0.00    +0.000 C 
ATOM     16  O   HIS A   2     -23.775  13.633 -65.342  0.00  0.00    +0.000 OA
ATOM     17  CB  HIS A   2     -21.666  11.892 -65.224  0.00  0.00    +0.000 C 
ATOM     18  CG  HIS A   2     -20.621  10.830 -65.276  0.00  0.00    +0.000 C 
ATOM     19  ND1 HIS A   2     -19.283  11.108 -65.468  0.00  0.00    +0.000 NA
ATOM     20  CD2 HIS A   2     -20.721   9.481 -65.215  0.00  0.00    +0.000 C 
ATOM     21  CE1 HIS A   2     -18.600   9.976 -65.494  0.00  0.00    +0.000 C 
ATOM     22  NE2 HIS A   2     -19.448   8.975 -65.343  0.00  0.00    +0.000 NA
ATOM     23  H   TYR A   1     -19.971  14.637 -70.534  0.00  0.00    +0.000 HD
ATOM     24  H   TYR A   1     -20.275  14.593 -68.897  0.00  0.00    +0.000 HD
ATOM     25  H   TYR A   1     -21.516  14.893 -69.967  0.00  0.00    +0.000 HD
ATOM     26  H   TYR A   1     -20.537   6.207 -71.178  0.00  0.00    +0.000 HD
ATOM     27  H   HIS A   2     -20.713  12.906 -67.334  0.00  0.00    +0.000 HD
TER 
REMARK  Name = /data/user_data/xianyang/t3-aimnet-affinity-balanced/L1/Q08499/pocket.pdb
REMARK                            x       y       z     vdW  Elec       q    Type
REMARK                         _______ _______ _______ _____ _____    ______ ____
ATOM      1  N   HIS B   1     -24.292  14.080 -60.290  0.00  0.00    +0.000 N 
ATOM      2  CA  HIS B   1     -22.857  13.944 -60.518  0.00  0.00    +0.000 C 
ATOM      3  C   HIS B   1     -22.253  15.304 -60.865  0.00  0.00    +0.000 C 
ATOM      4  O   HIS B   1     -22.766  15.995 -61.755  0.00  0.00    +0.000 OA
ATOM      5  CB  HIS B   1     -22.641  12.951 -61.652  0.00  0.00    +0.000 C 
ATOM      6  CG  HIS B   1     -21.270  12.378 -61.721  0.00  0.00    +0.000 C 
ATOM      7  ND1 HIS B   1     -20.141  13.156 -61.839  0.00  0.00    +0.000 NA
ATOM      8  CD2 HIS B   1     -20.846  11.090 -61.758  0.00  0.00    +0.000 C 
ATOM      9  CE1 HIS B   1     -19.078  12.372 -61.920  0.00  0.00    +0.000 C 
ATOM     10  NE2 HIS B   1     -19.482  11.114 -61.880  0.00  0.00    +0.000 NA
ATOM     11  H   HIS B   1     -24.687  13.169 -60.059  0.00  0.00    +0.000 HD
ATOM     12  H   HIS B   1     -24.738  14.440 -61.134  0.00  0.00    +0.000 HD
ATOM     13  H   HIS B   1     -24.454  14.726 -59.518  0.00  0.00    +0.000 HD
TER 
REMARK  Name = /data/user_data/xianyang/t3-aimnet-affinity-balanced/L1/Q08499/pocket.pdb
REMARK                            x       y       z     vdW  Elec       q    Type
REMARK                         _______ _______ _______ _____ _____    ______ ____
ATOM      1  N   SER C   1     -14.222  12.954 -60.515  0.00  0.00    +0.000 N 
ATOM      2  CA  SER C   1     -14.112  11.618 -59.965  0.00  0.00    +0.000 C 
ATOM      3  C   SER C   1     -14.167  11.652 -58.438  0.00  0.00    +0.000 C 
ATOM      4  O   SER C   1     -14.003  12.698 -57.797  0.00  0.00    +0.000 OA
ATOM      5  CB  SER C   1     -12.809  10.975 -60.414  0.00  0.00    +0.000 C 
ATOM      6  OG  SER C   1     -11.718  11.801 -60.031  0.00  0.00    +0.000 OA
ATOM      7  N   ASN C   2     -14.377  10.476 -57.856  0.00  0.00    +0.000 N 
ATOM      8  CA  ASN C   2     -14.193  10.320 -56.418  0.00  0.00    +0.000 C 
ATOM      9  C   ASN C   2     -12.826  10.830 -55.976  0.00  0.00    +0.000 C 
ATOM     10  O   ASN C   2     -12.714  11.594 -55.009  0.00  0.00    +0.000 OA
ATOM     11  CB  ASN C   2     -14.367   8.851 -56.035  0.00  0.00    +0.000 C 
ATOM     12  CG  ASN C   2     -15.838   8.439 -55.962  0.00  0.00    +0.000 C 
ATOM     13  OD1 ASN C   2     -16.718   9.279 -55.720  0.00  0.00    +0.000 OA
ATOM     14  ND2 ASN C   2     -16.108   7.145 -56.143  0.00  0.00    +0.000 N 
ATOM     15  H   SER C   1     -14.183  12.907 -61.533  0.00  0.00    +0.000 HD
ATOM     16  H   SER C   1     -13.452  13.528 -60.171  0.00  0.00    +0.000 HD
ATOM     17  H   SER C   1     -15.109  13.368 -60.228  0.00  0.00    +0.000 HD
ATOM     18  H   SER C   1     -11.713  11.904 -59.066  0.00  0.00    +0.000 HD
ATOM     19  H   ASN C   2     -14.659   9.705 -58.399  0.00  0.00    +0.000 HD
ATOM     20  H   ASN C   2     -15.378   6.512 -56.333  0.00  0.00    +0.000 HD
ATOM     21  H   ASN C   2     -17.037   6.823 -56.086  0.00  0.00    +0.000 HD
TER 
REMARK  Name = /data/user_data/xianyang/t3-aimnet-affinity-balanced/L1/Q08499/pocket.pdb
REMARK                            x       y       z     vdW  Elec       q    Type
REMARK                         _______ _______ _______ _____ _____    ______ ____
ATOM      1  N   GLU D   1     -21.145   7.415 -55.468  0.00  0.00    +0.000 N 
ATOM      2  CA  GLU D   1     -22.156   6.367 -55.482  0.00  0.00    +0.000 C 
ATOM      3  C   GLU D   1     -23.075   6.460 -54.271  0.00  0.00    +0.000 C 
ATOM      4  O   GLU D   1     -24.300   6.347 -54.402  0.00  0.00    +0.000 OA
ATOM      5  CB  GLU D   1     -21.467   5.008 -55.560  0.00  0.00    +0.000 C 
ATOM      6  CG  GLU D   1     -20.765   4.764 -56.917  0.00  0.00    +0.000 C 
ATOM      7  CD  GLU D   1     -19.469   5.578 -57.093  0.00  0.00    +0.000 C 
ATOM      8  OE2 GLU D   1     -18.884   6.012 -56.073  0.00  0.00    +0.000 OA
ATOM      9  OE1 GLU D   1     -19.024   5.776 -58.253  0.00  0.00    +0.000 OA
ATOM     10  H   GLU D   1     -20.549   7.323 -56.290  0.00  0.00    +0.000 HD
ATOM     11  H   GLU D   1     -20.577   7.328 -54.625  0.00  0.00    +0.000 HD
ATOM     12  H   GLU D   1     -21.601   8.327 -55.479  0.00  0.00    +0.000 HD
TER 
REMARK  Name = /data/user_data/xianyang/t3-aimnet-affinity-balanced/L1/Q08499/pocket.pdb
REMARK                            x       y       z     vdW  Elec       q    Type
REMARK                         _______ _______ _______ _____ _____    ______ ____
ATOM      1  N   THR E   1     -21.372   0.212 -58.864  0.00  0.00    +0.000 N 
ATOM      2  CA  THR E   1     -20.938   0.924 -60.056  0.00  0.00    +0.000 C 
ATOM      3  C   THR E   1     -19.701   1.775 -59.806  0.00  0.00    +0.000 C 
ATOM      4  O   THR E   1     -19.196   2.404 -60.742  0.00  0.00    +0.000 OA
ATOM      5  CB  THR E   1     -22.059   1.798 -60.609  0.00  0.00    +0.000 C 
ATOM      6  OG1 THR E   1     -22.371   2.830 -59.673  0.00  0.00    +0.000 OA
ATOM      7  CG2 THR E   1     -23.283   0.958 -60.882  0.00  0.00    +0.000 C 
ATOM      8  N   ASP E   2     -19.221   1.816 -58.572  0.00  0.00    +0.000 N 
ATOM      9  CA  ASP E   2     -17.963   2.472 -58.239  0.00  0.00    +0.000 C 
ATOM     10  C   ASP E   2     -16.823   1.804 -58.992  0.00  0.00    +0.000 C 
ATOM     11  O   ASP E   2     -16.546   0.618 -58.784  0.00  0.00    +0.000 OA
ATOM     12  CB  ASP E   2     -17.747   2.390 -56.725  0.00  0.00    +0.000 C 
ATOM     13  CG  ASP E   2     -16.457   3.065 -56.249  0.00  0.00    +0.000 C 
ATOM     14  OD1 ASP E   2     -15.580   3.393 -57.070  0.00  0.00    +0.000 OA
ATOM     15  OD2 ASP E   2     -16.315   3.235 -55.019  0.00  0.00    +0.000 OA
ATOM     16  N   MET E   3     -16.150   2.567 -59.866  0.00  0.00    +0.000 N 
ATOM     17  CA  MET E   3     -15.122   1.976 -60.718  0.00  0.00    +0.000 C 
ATOM     18  C   MET E   3     -13.950   1.382 -59.939  0.00  0.00    +0.000 C 
ATOM     19  O   MET E   3     -13.257   0.504 -60.463  0.00  0.00    +0.000 OA
ATOM     20  CB  MET E   3     -14.608   3.013 -61.723  0.00  0.00    +0.000 C 
ATOM     21  CG  MET E   3     -15.525   3.231 -62.933  0.00  0.00    +0.000 C 
ATOM     22  SD  MET E   3     -15.762   1.766 -63.953  0.00  0.00    +0.000 S 
ATOM     23  CE  MET E   3     -14.114   1.062 -64.015  0.00  0.00    +0.000 C 
ATOM     24  N   SER E   4     -13.701   1.831 -58.710  0.00  0.00    +0.000 N 
ATOM     25  CA  SER E   4     -12.654   1.213 -57.897  0.00  0.00    +0.000 C 
ATOM     26  CB  SER E   4     -12.947  -0.236 -57.543  0.00  0.00    +0.000 C 
ATOM     27  OG  SER E   4     -12.028  -0.936 -57.117  0.00  0.00    +0.000 OA
ATOM     28  C   SER E   4     -12.438   1.985 -56.602  0.00  0.00    +0.000 C 
ATOM     29  O   SER E   4     -13.655   2.131 -55.905  0.00  0.00    +0.000 OA
ATOM     30  H   THR E   1     -22.200  -0.342 -59.082  0.00  0.00    +0.000 HD
ATOM     31  H   THR E   1     -21.595   0.883 -58.129  0.00  0.00    +0.000 HD
ATOM     32  H   THR E   1     -20.625  -0.405 -58.545  0.00  0.00    +0.000 HD
ATOM     33  H   THR E   1     -22.664   2.432 -58.839  0.00  0.00    +0.000 HD
ATOM     34  H   ASP E   2     -19.735   1.386 -57.851  0.00  0.00    +0.000 HD
ATOM     35  H   MET E   3     -16.350   3.529 -59.933  0.00  0.00    +0.000 HD
ATOM     36  H   SER E   4     -14.224   2.582 -58.347  0.00  0.00    +0.000 HD
ATOM     37  H   SER E   4     -14.286   2.621 -56.455  0.00  0.00    +0.000 HD
TER 
REMARK  Name = /data/user_data/xianyang/t3-aimnet-affinity-balanced/L1/Q08499/pocket.pdb
REMARK                            x       y       z     vdW  Elec       q    Type
REMARK                         _______ _______ _______ _____ _____    ______ ____
ATOM      1  N   HIS F   1     -14.126  -2.414 -59.778  0.00  0.00    +0.000 N 
ATOM      2  CA  HIS F   1     -14.305  -3.104 -61.044  0.00  0.00    +0.000 C 
ATOM      3  C   HIS F   1     -13.600  -4.454 -61.052  0.00  0.00    +0.000 C 
ATOM      4  O   HIS F   1     -14.168  -5.452 -61.512  0.00  0.00    +0.000 OA
ATOM      5  CB  HIS F   1     -13.799  -2.244 -62.189  0.00  0.00    +0.000 C 
ATOM      6  CG  HIS F   1     -13.594  -3.033 -63.437  0.00  0.00    +0.000 C 
ATOM      7  ND1 HIS F   1     -14.634  -3.383 -64.270  0.00  0.00    +0.000 NA
ATOM      8  CD2 HIS F   1     -12.488  -3.624 -63.943  0.00  0.00    +0.000 C 
ATOM      9  CE1 HIS F   1     -14.166  -4.109 -65.268  0.00  0.00    +0.000 C 
ATOM     10  NE2 HIS F   1     -12.865  -4.269 -65.093  0.00  0.00    +0.000 NA
ATOM     11  N   MET F   2     -12.365  -4.504 -60.545  0.00  0.00    +0.000 N 
ATOM     12  CA  MET F   2     -11.607  -5.753 -60.551  0.00  0.00    +0.000 C 
ATOM     13  C   MET F   2     -12.331  -6.836 -59.763  0.00  0.00    +0.000 C 
ATOM     14  O   MET F   2     -12.675  -7.891 -60.308  0.00  0.00    +0.000 OA
ATOM     15  CB  MET F   2     -10.205  -5.538 -59.981  0.00  0.00    +0.000 C 
ATOM     16  CG  MET F   2      -9.256  -4.721 -60.846  0.00  0.00    +0.000 C 
ATOM     17  SD  MET F   2      -9.300  -5.127 -62.607  0.00  0.00    +0.000 S 
ATOM     18  CE  MET F   2      -7.821  -4.290 -63.185  0.00  0.00    +0.000 C 
ATOM     19  H   HIS F   1     -14.610  -1.517 -59.808  0.00  0.00    +0.000 HD
ATOM     20  H   HIS F   1     -13.131  -2.259 -59.613  0.00  0.00    +0.000 HD
ATOM     21  H   HIS F   1     -14.511  -2.982 -59.024  0.00  0.00    +0.000 HD
ATOM     22  H   MET F   2     -11.962  -3.691 -60.163  0.00  0.00    +0.000 HD
TER 
REMARK  Name = /data/user_data/xianyang/t3-aimnet-affinity-balanced/L1/Q08499/pocket.pdb
REMARK                            x       y       z     vdW  Elec       q    Type
REMARK                         _______ _______ _______ _____ _____    ______ ____
ATOM      1  N   ASP G   1     -23.086   0.419 -67.635  0.00  0.00    +0.000 N 
ATOM      2  CA  ASP G   1     -22.298   1.614 -67.346  0.00  0.00    +0.000 C 
ATOM      3  C   ASP G   1     -21.079   1.663 -68.247  0.00  0.00    +0.000 C 
ATOM      4  O   ASP G   1     -20.674   2.738 -68.698  0.00  0.00    +0.000 OA
ATOM      5  CB  ASP G   1     -21.876   1.625 -65.868  0.00  0.00    +0.000 C 
ATOM      6  CG  ASP G   1     -21.513   3.012 -65.351  0.00  0.00    +0.000 C 
ATOM      7  OD1 ASP G   1     -22.079   4.028 -65.828  0.00  0.00    +0.000 OA
ATOM      8  OD2 ASP G   1     -20.653   3.076 -64.439  0.00  0.00    +0.000 OA
ATOM      9  N   LEU G   2     -20.509   0.503 -68.542  0.00  0.00    +0.000 N 
ATOM     10  CA  LEU G   2     -19.357   0.375 -69.420  0.00  0.00    +0.000 C 
ATOM     11  C   LEU G   2     -19.742  -0.193 -70.785  0.00  0.00    +0.000 C 
ATOM     12  O   LEU G   2     -19.022  -1.004 -71.359  0.00  0.00    +0.000 OA
ATOM     13  CB  LEU G   2     -18.285  -0.482 -68.755  0.00  0.00    +0.000 C 
ATOM     14  CG  LEU G   2     -17.797   0.057 -67.399  0.00  0.00    +0.000 C 
ATOM     15  CD2 LEU G   2     -16.709  -0.811 -66.825  0.00  0.00    +0.000 C 
ATOM     16  CD1 LEU G   2     -17.276   1.478 -67.572  0.00  0.00    +0.000 C 
ATOM     17  H   ASP G   1     -23.360   0.422 -68.617  0.00  0.00    +0.000 HD
ATOM     18  H   ASP G   1     -23.921   0.412 -67.049  0.00  0.00    +0.000 HD
ATOM     19  H   ASP G   1     -22.527  -0.412 -67.441  0.00  0.00    +0.000 HD
ATOM     20  H   LEU G   2     -20.886  -0.316 -68.145  0.00  0.00    +0.000 HD
TER 
REMARK  Name = /data/user_data/xianyang/t3-aimnet-affinity-balanced/L1/Q08499/pocket.pdb
REMARK                            x       y       z     vdW  Elec       q    Type
REMARK                         _______ _______ _______ _____ _____    ______ ____
ATOM      1  N   ASN H   1     -20.728   1.932 -73.534  0.00  0.00    +0.000 N 
ATOM      2  CA  ASN H   1     -20.456   2.844 -74.646  0.00  0.00    +0.000 C 
ATOM      3  C   ASN H   1     -19.617   2.210 -75.754  0.00  0.00    +0.000 C 
ATOM      4  O   ASN H   1     -20.016   2.308 -76.924  0.00  0.00    +0.000 OA
ATOM      5  CB  ASN H   1     -19.774   4.127 -74.148  0.00  0.00    +0.000 C 
ATOM      6  CG  ASN H   1     -20.662   4.988 -73.268  0.00  0.00    +0.000 C 
ATOM      7  OD1 ASN H   1     -20.160   5.891 -72.618  0.00  0.00    +0.000 OA
ATOM      8  ND2 ASN H   1     -21.969   4.730 -73.247  0.00  0.00    +0.000 N 
ATOM      9  N   PRO H   2     -18.479   1.555 -75.485  0.00  0.00    +0.000 N 
ATOM     10  CA  PRO H   2     -17.671   1.031 -76.596  0.00  0.00    +0.000 C 
ATOM     11  C   PRO H   2     -18.257  -0.190 -77.297  0.00  0.00    +0.000 C 
ATOM     12  O   PRO H   2     -17.565  -0.817 -78.109  0.00  0.00    +0.000 OA
ATOM     13  CB  PRO H   2     -16.338   0.679 -75.925  0.00  0.00    +0.000 C 
ATOM     14  CG  PRO H   2     -16.351   1.427 -74.618  0.00  0.00    +0.000 C 
ATOM     15  CD  PRO H   2     -17.766   1.423 -74.202  0.00  0.00    +0.000 C 
ATOM     16  H   ASN H   1     -21.180   1.089 -73.888  0.00  0.00    +0.000 HD
ATOM     17  H   ASN H   1     -21.343   2.390 -72.861  0.00  0.00    +0.000 HD
ATOM     18  H   ASN H   1     -19.851   1.681 -73.078  0.00  0.00    +0.000 HD
ATOM     19  H   ASN H   1     -22.334   3.992 -73.787  0.00  0.00    +0.000 HD
ATOM     20  H   ASN H   1     -22.570   5.278 -72.692  0.00  0.00    +0.000 HD
TER 
REMARK  Name = /data/user_data/xianyang/t3-aimnet-affinity-balanced/L1/Q08499/pocket.pdb
REMARK                            x       y       z     vdW  Elec       q    Type
REMARK                         _______ _______ _______ _____ _____    ______ ____
ATOM      1  N   TYR I   1     -20.802   5.570 -79.913  0.00  0.00    +0.000 N 
ATOM      2  CA  TYR I   1     -19.587   5.414 -79.133  0.00  0.00    +0.000 C 
ATOM      3  C   TYR I   1     -18.701   6.644 -79.260  0.00  0.00    +0.000 C 
ATOM      4  O   TYR I   1     -18.278   7.228 -78.253  0.00  0.00    +0.000 OA
ATOM      5  CB  TYR I   1     -18.868   4.152 -79.602  0.00  0.00    +0.000 C 
ATOM      6  CG  TYR I   1     -17.575   3.832 -78.910  0.00  0.00    +0.000 A 
ATOM      7  CD2 TYR I   1     -17.219   4.427 -77.687  0.00  0.00    +0.000 A 
ATOM      8  CD1 TYR I   1     -16.690   2.931 -79.485  0.00  0.00    +0.000 A 
ATOM      9  CE2 TYR I   1     -16.002   4.129 -77.079  0.00  0.00    +0.000 A 
ATOM     10  CE1 TYR I   1     -15.506   2.632 -78.894  0.00  0.00    +0.000 A 
ATOM     11  CZ  TYR I   1     -15.152   3.228 -77.697  0.00  0.00    +0.000 A 
ATOM     12  OH  TYR I   1     -13.951   2.884 -77.132  0.00  0.00    +0.000 OA
ATOM     13  H   TYR I   1     -21.380   4.735 -79.813  0.00  0.00    +0.000 HD
ATOM     14  H   TYR I   1     -20.561   5.701 -80.895  0.00  0.00    +0.000 HD
ATOM     15  H   TYR I   1     -21.319   6.383 -79.578  0.00  0.00    +0.000 HD
ATOM     16  H   TYR I   1     -13.388   2.272 -77.564  0.00  0.00    +0.000 HD
TER 
REMARK  Name = /data/user_data/xianyang/t3-aimnet-affinity-balanced/L1/Q08499/pocket.pdb
REMARK                            x       y       z     vdW  Elec       q    Type
REMARK                         _______ _______ _______ _____ _____    ______ ____
ATOM      1  N   TRP J   1     -20.060   9.484 -77.117  0.00  0.00    +0.000 N 
ATOM      2  CA  TRP J   1     -19.734   9.305 -75.706  0.00  0.00    +0.000 C 
ATOM      3  C   TRP J   1     -18.269   9.636 -75.453  0.00  0.00    +0.000 C 
ATOM      4  O   TRP J   1     -17.943  10.374 -74.516  0.00  0.00    +0.000 OA
ATOM      5  CB  TRP J   1     -20.062   7.874 -75.250  0.00  0.00    +0.000 C 
ATOM      6  CG  TRP J   1     -21.547   7.570 -75.243  0.00  0.00    +0.000 C 
ATOM      7  CD1 TRP J   1     -22.184   6.605 -75.952  0.00  0.00    +0.000 C 
ATOM      8  CD2 TRP J   1     -22.562   8.263 -74.512  0.00  0.00    +0.000 C 
ATOM      9  NE1 TRP J   1     -23.537   6.648 -75.710  0.00  0.00    +0.000 NA
ATOM     10  CE2 TRP J   1     -23.794   7.657 -74.825  0.00  0.00    +0.000 C 
ATOM     11  CE3 TRP J   1     -22.549   9.329 -73.609  0.00  0.00    +0.000 C 
ATOM     12  CZ2 TRP J   1     -25.003   8.084 -74.269  0.00  0.00    +0.000 C 
ATOM     13  CZ3 TRP J   1     -23.751   9.753 -73.055  0.00  0.00    +0.000 C 
ATOM     14  CH2 TRP J   1     -24.959   9.136 -73.394  0.00  0.00    +0.000 C 
ATOM     15  N   THR J   2     -17.369   9.111 -76.296  0.00  0.00    +0.000 N 
ATOM     16  CA  THR J   2     -15.944   9.399 -76.143  0.00  0.00    +0.000 C 
ATOM     17  C   THR J   2     -15.681  10.897 -76.144  0.00  0.00    +0.000 C 
ATOM     18  O   THR J   2     -14.893  11.401 -75.338  0.00  0.00    +0.000 OA
ATOM     19  CB  THR J   2     -15.141   8.748 -77.259  0.00  0.00    +0.000 C 
ATOM     20  OG1 THR J   2     -15.278   7.330 -77.178  0.00  0.00    +0.000 OA
ATOM     21  CG2 THR J   2     -13.656   9.126 -77.119  0.00  0.00    +0.000 C 
ATOM     22  N   ASP J   3     -16.303  11.616 -77.083  0.00  0.00    +0.000 N 
ATOM     23  CA  ASP J   3     -16.194  13.066 -77.098  0.00  0.00    +0.000 C 
ATOM     24  C   ASP J   3     -16.667  13.637 -75.778  0.00  0.00    +0.000 C 
ATOM     25  O   ASP J   3     -16.019  14.525 -75.212  0.00  0.00    +0.000 OA
ATOM     26  CB  ASP J   3     -17.018  13.654 -78.246  0.00  0.00    +0.000 C 
ATOM     27  CG  ASP J   3     -16.233  13.771 -79.554  0.00  0.00    +0.000 C 
ATOM     28  OD2 ASP J   3     -15.188  13.098 -79.717  0.00  0.00    +0.000 OA
ATOM     29  OD1 ASP J   3     -16.695  14.530 -80.435  0.00  0.00    +0.000 OA
ATOM     30  H   TRP J   1     -19.835  10.438 -77.399  0.00  0.00    +0.000 HD
ATOM     31  H   TRP J   1     -21.055   9.312 -77.260  0.00  0.00    +0.000 HD
ATOM     32  H   TRP J   1     -19.517   8.827 -77.677  0.00  0.00    +0.000 HD
ATOM     33  H   THR J   2     -17.671   8.525 -77.027  0.00  0.00    +0.000 HD
ATOM     34  H   THR J   2     -14.946   7.022 -76.321  0.00  0.00    +0.000 HD
ATOM     35  H   ASP J   3     -16.840  11.160 -77.771  0.00  0.00    +0.000 HD
TER 
REMARK  Name = /data/user_data/xianyang/t3-aimnet-affinity-balanced/L1/Q08499/pocket.pdb
REMARK                            x       y       z     vdW  Elec       q    Type
REMARK                         _______ _______ _______ _____ _____    ______ ____
ATOM      1  N   ILE K   1     -17.001  12.106 -72.708  0.00  0.00    +0.000 N 
ATOM      2  CA  ILE K   1     -16.205  11.758 -71.535  0.00  0.00    +0.000 C 
ATOM      3  C   ILE K   1     -14.891  12.525 -71.550  0.00  0.00    +0.000 C 
ATOM      4  O   ILE K   1     -14.389  12.940 -70.500  0.00  0.00    +0.000 OA
ATOM      5  CB  ILE K   1     -15.973  10.233 -71.434  0.00  0.00    +0.000 C 
ATOM      6  CG1 ILE K   1     -15.457   9.866 -70.038  0.00  0.00    +0.000 C 
ATOM      7  CG2 ILE K   1     -14.950   9.743 -72.447  0.00  0.00    +0.000 C 
ATOM      8  CD1 ILE K   1     -16.438  10.159 -68.918  0.00  0.00    +0.000 C 
ATOM      9  N   MET K   2     -14.321  12.745 -72.734  0.00  0.00    +0.000 N 
ATOM     10  CA  MET K   2     -13.045  13.442 -72.788  0.00  0.00    +0.000 C 
ATOM     11  C   MET K   2     -13.213  14.916 -72.455  0.00  0.00    +0.000 C 
ATOM     12  O   MET K   2     -12.367  15.500 -71.769  0.00  0.00    +0.000 OA
ATOM     13  CB  MET K   2     -12.394  13.270 -74.160  0.00  0.00    +0.000 C 
ATOM     14  CG  MET K   2     -11.949  11.854 -74.466  0.00  0.00    +0.000 C 
ATOM     15  SD  MET K   2     -10.852  11.139 -73.220  0.00  0.00    +0.000 S 
ATOM     16  CE  MET K   2      -9.773  12.512 -72.866  0.00  0.00    +0.000 C 
ATOM     17  H   ILE K   1     -17.133  13.117 -72.742  0.00  0.00    +0.000 HD
ATOM     18  H   ILE K   1     -17.910  11.646 -72.651  0.00  0.00    +0.000 HD
ATOM     19  H   ILE K   1     -16.516  11.798 -73.551  0.00  0.00    +0.000 HD
ATOM     20  H   MET K   2     -14.758  12.440 -73.562  0.00  0.00    +0.000 HD
TER 
REMARK  Name = /data/user_data/xianyang/t3-aimnet-affinity-balanced/L1/Q08499/pocket.pdb
REMARK                            x       y       z     vdW  Elec       q    Type
REMARK                         _______ _______ _______ _____ _____    ______ ____
ATOM      1  N   PHE L   1     -13.329  14.903 -68.787  0.00  0.00    +0.000 N 
ATOM      2  CA  PHE L   1     -12.020  14.662 -68.190  0.00  0.00    +0.000 C 
ATOM      3  C   PHE L   1     -11.080  15.847 -68.378  0.00  0.00    +0.000 C 
ATOM      4  O   PHE L   1     -10.221  16.089 -67.529  0.00  0.00    +0.000 OA
ATOM      5  CB  PHE L   1     -11.389  13.404 -68.783  0.00  0.00    +0.000 C 
ATOM      6  CG  PHE L   1     -11.935  12.141 -68.216  0.00  0.00    +0.000 A 
ATOM      7  CD2 PHE L   1     -12.993  12.168 -67.306  0.00  0.00    +0.000 A 
ATOM      8  CD1 PHE L   1     -11.385  10.921 -68.571  0.00  0.00    +0.000 A 
ATOM      9  CE2 PHE L   1     -13.497  10.994 -66.767  0.00  0.00    +0.000 A 
ATOM     10  CE1 PHE L   1     -11.877   9.740 -68.031  0.00  0.00    +0.000 A 
ATOM     11  CZ  PHE L   1     -12.935   9.771 -67.129  0.00  0.00    +0.000 A 
ATOM     12  H   PHE L   1     -13.925  14.089 -68.639  0.00  0.00    +0.000 HD
ATOM     13  H   PHE L   1     -13.221  15.068 -69.788  0.00  0.00    +0.000 HD
ATOM     14  H   PHE L   1     -13.756  15.721 -68.351  0.00  0.00    +0.000 HD
TER 
REMARK  Name = /data/user_data/xianyang/t3-aimnet-affinity-balanced/L1/Q08499/pocket.pdb
REMARK                            x       y       z     vdW  Elec       q    Type
REMARK                         _______ _______ _______ _____ _____    ______ ____
ATOM      1  N   PRO M   1      -4.699  10.758 -64.530  0.00  0.00    +0.000 N 
ATOM      2  CA  PRO M   1      -4.460  10.117 -65.833  0.00  0.00    +0.000 C 
ATOM      3  C   PRO M   1      -5.519  10.425 -66.887  0.00  0.00    +0.000 C 
ATOM      4  O   PRO M   1      -6.721  10.257 -66.648  0.00  0.00    +0.000 OA
ATOM      5  CB  PRO M   1      -4.437   8.617 -65.485  0.00  0.00    +0.000 C 
ATOM      6  CG  PRO M   1      -4.731   8.517 -63.981  0.00  0.00    +0.000 C 
ATOM      7  CD  PRO M   1      -4.386   9.853 -63.411  0.00  0.00    +0.000 C 
ATOM      8  N   MET M   2      -5.062  10.876 -68.064  0.00  0.00    +0.000 N 
ATOM      9  CA  MET M   2      -5.876  11.140 -69.256  0.00  0.00    +0.000 C 
ATOM     10  C   MET M   2      -6.823  12.329 -69.094  0.00  0.00    +0.000 C 
ATOM     11  O   MET M   2      -7.823  12.427 -69.816  0.00  0.00    +0.000 OA
ATOM     12  CB  MET M   2      -6.662   9.895 -69.706  0.00  0.00    +0.000 C 
ATOM     13  CG  MET M   2      -5.979   8.559 -69.390  0.00  0.00    +0.000 C 
ATOM     14  SD  MET M   2      -7.071   7.130 -69.486  0.00  0.00    +0.000 S 
ATOM     15  CE  MET M   2      -8.066   7.352 -68.000  0.00  0.00    +0.000 C 
ATOM     16  H   PRO M   1      -5.680  11.030 -64.471  0.00  0.00    +0.000 HD
ATOM     17  H   PRO M   1      -4.089  11.572 -64.460  0.00  0.00    +0.000 HD
ATOM     18  H   MET M   2      -4.095  11.045 -68.135  0.00  0.00    +0.000 HD
TER 
REMARK  Name = /data/user_data/xianyang/t3-aimnet-affinity-balanced/L1/Q08499/pocket.pdb
REMARK                            x       y       z     vdW  Elec       q    Type
REMARK                         _______ _______ _______ _____ _____    ______ ____
ATOM      1  N   VAL N   1      -6.371  10.564 -77.244  0.00  0.00    +0.000 N 
ATOM      2  CA  VAL N   1      -7.741  10.112 -77.018  0.00  0.00    +0.000 C 
ATOM      3  C   VAL N   1      -7.950   8.709 -77.570  0.00  0.00    +0.000 C 
ATOM      4  O   VAL N   1      -8.613   7.866 -76.948  0.00  0.00    +0.000 OA
ATOM      5  CB  VAL N   1      -8.733  11.110 -77.644  0.00  0.00    +0.000 C 
ATOM      6  CG1 VAL N   1     -10.101  10.460 -77.807  0.00  0.00    +0.000 C 
ATOM      7  CG2 VAL N   1      -8.810  12.376 -76.803  0.00  0.00    +0.000 C 
ATOM      8  H   VAL N   1      -6.257  11.504 -76.866  0.00  0.00    +0.000 HD
ATOM      9  H   VAL N   1      -6.177  10.574 -78.245  0.00  0.00    +0.000 HD
ATOM     10  H   VAL N   1      -5.722   9.929 -76.778  0.00  0.00    +0.000 HD
TER 
REMARK  Name = /data/user_data/xianyang/t3-aimnet-affinity-balanced/L1/Q08499/pocket.pdb
REMARK                            x       y       z     vdW  Elec       q    Type
REMARK                         _______ _______ _______ _____ _____    ______ ____
ATOM      1  N   SER O   1      -6.086   5.944 -75.730  0.00  0.00    +0.000 N 
ATOM      2  CA  SER O   1      -6.734   5.698 -74.452  0.00  0.00    +0.000 C 
ATOM      3  C   SER O   1      -7.982   4.829 -74.606  0.00  0.00    +0.000 C 
ATOM      4  O   SER O   1      -8.254   3.978 -73.753  0.00  0.00    +0.000 OA
ATOM      5  CB  SER O   1      -7.063   7.027 -73.789  0.00  0.00    +0.000 C 
ATOM      6  OG  SER O   1      -5.863   7.681 -73.444  0.00  0.00    +0.000 OA
ATOM      7  N   GLN O   2      -8.744   5.013 -75.688  0.00  0.00    +0.000 N 
ATOM      8  CA  GLN O   2      -9.907   4.160 -75.916  0.00  0.00    +0.000 C 
ATOM      9  C   GLN O   2      -9.497   2.705 -76.140  0.00  0.00    +0.000 C 
ATOM     10  O   GLN O   2     -10.137   1.787 -75.619  0.00  0.00    +0.000 OA
ATOM     11  CB  GLN O   2     -10.719   4.687 -77.097  0.00  0.00    +0.000 C 
ATOM     12  CG  GLN O   2     -11.530   5.901 -76.745  0.00  0.00    +0.000 C 
ATOM     13  CD  GLN O   2     -12.386   5.666 -75.508  0.00  0.00    +0.000 C 
ATOM     14  OE1 GLN O   2     -13.235   4.768 -75.481  0.00  0.00    +0.000 OA
ATOM     15  NE2 GLN O   2     -12.151   6.458 -74.468  0.00  0.00    +0.000 N 
ATOM     16  H   SER O   1      -5.865   5.054 -76.176  0.00  0.00    +0.000 HD
ATOM     17  H   SER O   1      -5.226   6.472 -75.579  0.00  0.00    +0.000 HD
ATOM     18  H   SER O   1      -6.712   6.479 -76.331  0.00  0.00    +0.000 HD
ATOM     19  H   SER O   1      -5.357   7.125 -72.831  0.00  0.00    +0.000 HD
ATOM     20  H   GLN O   2      -8.521   5.724 -76.332  0.00  0.00    +0.000 HD
ATOM     21  H   GLN O   2     -11.466   7.162 -74.530  0.00  0.00    +0.000 HD
ATOM     22  H   GLN O   2     -12.662   6.341 -73.635  0.00  0.00    +0.000 HD
TER 
REMARK  Name = /data/user_data/xianyang/t3-aimnet-affinity-balanced/L1/Q08499/pocket.pdb
REMARK                            x       y       z     vdW  Elec       q    Type
REMARK                         _______ _______ _______ _____ _____    ______ ____
ATOM      1  N   PHE P   1      -8.470   1.414 -72.817  0.00  0.00    +0.000 N 
ATOM      2  CA  PHE P   1      -9.701   1.256 -72.047  0.00  0.00    +0.000 C 
ATOM      3  C   PHE P   1     -10.431  -0.029 -72.432  0.00  0.00    +0.000 C 
ATOM      4  O   PHE P   1     -10.899  -0.777 -71.562  0.00  0.00    +0.000 OA
ATOM      5  CB  PHE P   1     -10.584   2.482 -72.275  0.00  0.00    +0.000 C 
ATOM      6  CG  PHE P   1     -11.872   2.487 -71.485  0.00  0.00    +0.000 A 
ATOM      7  CD2 PHE P   1     -11.887   2.183 -70.133  0.00  0.00    +0.000 A 
ATOM      8  CD1 PHE P   1     -13.064   2.844 -72.100  0.00  0.00    +0.000 A 
ATOM      9  CE2 PHE P   1     -13.071   2.216 -69.412  0.00  0.00    +0.000 A 
ATOM     10  CE1 PHE P   1     -14.258   2.877 -71.382  0.00  0.00    +0.000 A 
ATOM     11  CZ  PHE P   1     -14.258   2.564 -70.039  0.00  0.00    +0.000 A 
ATOM     12  H   PHE P   1      -7.872   0.601 -72.673  0.00  0.00    +0.000 HD
ATOM     13  H   PHE P   1      -7.981   2.254 -72.508  0.00  0.00    +0.000 HD
ATOM     14  H   PHE P   1      -8.697   1.497 -73.808  0.00  0.00    +0.000 HD
TER 
REMARK  Name = /data/user_data/xianyang/t3-aimnet-affinity-balanced/L1/Q08499/pocket.pdb
REMARK                            x       y       z     vdW  Elec       q    Type
REMARK                         _______ _______ _______ _____ _____    ______ ____
ATOM      1  N   ILE Q   1     -10.072  -2.893 -69.633  0.00  0.00    +0.000 N 
ATOM      2  CA  ILE Q   1     -11.262  -2.819 -68.794  0.00  0.00    +0.000 C 
ATOM      3  C   ILE Q   1     -12.478  -3.374 -69.523  0.00  0.00    +0.000 C 
ATOM      4  O   ILE Q   1     -13.120  -4.314 -69.045  0.00  0.00    +0.000 OA
ATOM      5  CB  ILE Q   1     -11.537  -1.375 -68.334  0.00  0.00    +0.000 C 
ATOM      6  CG1 ILE Q   1     -10.356  -0.812 -67.547  0.00  0.00    +0.000 C 
ATOM      7  CG2 ILE Q   1     -12.789  -1.313 -67.487  0.00  0.00    +0.000 C 
ATOM      8  CD1 ILE Q   1     -10.206  -1.403 -66.154  0.00  0.00    +0.000 C 
ATOM      9  N   VAL Q   2     -12.820  -2.785 -70.672  0.00  0.00    +0.000 N 
ATOM     10  CA  VAL Q   2     -14.137  -3.021 -71.266  0.00  0.00    +0.000 C 
ATOM     11  C   VAL Q   2     -14.236  -4.420 -71.864  0.00  0.00    +0.000 C 
ATOM     12  O   VAL Q   2     -15.262  -5.103 -71.708  0.00  0.00    +0.000 OA
ATOM     13  CB  VAL Q   2     -14.453  -1.953 -72.319  0.00  0.00    +0.000 C 
ATOM     14  CG1 VAL Q   2     -15.768  -2.268 -72.977  0.00  0.00    +0.000 C 
ATOM     15  CG2 VAL Q   2     -14.498  -0.564 -71.684  0.00  0.00    +0.000 C 
ATOM     16  H   ILE Q   1      -9.918  -3.860 -69.920  0.00  0.00    +0.000 HD
ATOM     17  H   ILE Q   1      -9.264  -2.562 -69.106  0.00  0.00    +0.000 HD
ATOM     18  H   ILE Q   1     -10.202  -2.309 -70.459  0.00  0.00    +0.000 HD
ATOM     19  H   VAL Q   2     -12.181  -2.187 -71.123  0.00  0.00    +0.000 HD
TER 
