REMARK  Name = /data/user_data/xianyang/t3-aimnet-affinity-balanced/L3/Q9Y4K4/pocket.pdb
REMARK                            x       y       z     vdW  Elec       q    Type
REMARK                         _______ _______ _______ _____ _____    ______ ____
ATOM      1  N   VAL A   1      -4.778  18.281  -4.441  0.00  0.00    +0.000 N 
ATOM      2  CA  VAL A   1      -6.086  17.649  -4.508  0.00  0.00    +0.000 C 
ATOM      3  C   VAL A   1      -6.001  16.134  -4.563  0.00  0.00    +0.000 C 
ATOM      4  O   VAL A   1      -7.017  15.461  -4.390  0.00  0.00    +0.000 OA
ATOM      5  CB  VAL A   1      -6.904  18.156  -5.715  0.00  0.00    +0.000 C 
ATOM      6  CG2 VAL A   1      -7.172  19.647  -5.557  0.00  0.00    +0.000 C 
ATOM      7  CG1 VAL A   1      -6.169  17.863  -7.020  0.00  0.00    +0.000 C 
ATOM      8  N   GLY A   2      -4.835  15.571  -4.812  0.00  0.00    +0.000 N 
ATOM      9  CA  GLY A   2      -4.705  14.130  -4.885  0.00  0.00    +0.000 C 
ATOM     10  C   GLY A   2      -3.264  13.692  -4.898  0.00  0.00    +0.000 C 
ATOM     11  O   GLY A   2      -2.350  14.507  -5.051  0.00  0.00    +0.000 OA
ATOM     12  N   SER A   3      -3.076  12.403  -4.737  0.00  0.00    +0.000 N 
ATOM     13  CA  SER A   3      -1.750  11.816  -4.708  0.00  0.00    +0.000 C 
ATOM     14  C   SER A   3      -1.819  10.410  -5.277  0.00  0.00    +0.000 C 
ATOM     15  O   SER A   3      -2.733   9.650  -4.968  0.00  0.00    +0.000 OA
ATOM     16  CB  SER A   3      -1.180  11.787  -3.293  0.00  0.00    +0.000 C 
ATOM     17  OG  SER A   3       0.091  11.164  -3.270  0.00  0.00    +0.000 OA
ATOM     18  N   GLY A   4      -0.850  10.085  -6.090  0.00  0.00    +0.000 N 
ATOM     19  CA  GLY A   4      -0.741   8.763  -6.663  0.00  0.00    +0.000 C 
ATOM     20  C   GLY A   4       0.603   8.146  -6.363  0.00  0.00    +0.000 C 
ATOM     21  O   GLY A   4       1.420   8.697  -5.623  0.00  0.00    +0.000 OA
ATOM     22  H   VAL A   1      -4.891  19.294  -4.406  0.00  0.00    +0.000 HD
ATOM     23  H   VAL A   1      -4.235  18.028  -5.267  0.00  0.00    +0.000 HD
ATOM     24  H   VAL A   1      -4.290  17.964  -3.603  0.00  0.00    +0.000 HD
ATOM     25  H   GLY A   2      -4.042  16.138  -4.950  0.00  0.00    +0.000 HD
ATOM     26  H   SER A   3      -3.860  11.816  -4.633  0.00  0.00    +0.000 HD
ATOM     27  H   SER A   3       0.008  10.249  -3.580  0.00  0.00    +0.000 HD
ATOM     28  H   GLY A   4      -0.173  10.762  -6.320  0.00  0.00    +0.000 HD
TER 
REMARK  Name = /data/user_data/xianyang/t3-aimnet-affinity-balanced/L3/Q9Y4K4/pocket.pdb
REMARK                            x       y       z     vdW  Elec       q    Type
REMARK                         _______ _______ _______ _____ _____    ______ ____
ATOM      1  N   TYR B   1       3.028   7.793  -8.386  0.00  0.00    +0.000 N 
ATOM      2  CA  TYR B   1       4.123   8.437  -9.097  0.00  0.00    +0.000 C 
ATOM      3  C   TYR B   1       3.843   9.919  -9.324  0.00  0.00    +0.000 C 
ATOM      4  O   TYR B   1       4.163  10.466 -10.377  0.00  0.00    +0.000 OA
ATOM      5  CB  TYR B   1       4.399   7.729 -10.432  0.00  0.00    +0.000 C 
ATOM      6  CG  TYR B   1       3.234   7.676 -11.391  0.00  0.00    +0.000 A 
ATOM      7  CD2 TYR B   1       2.247   6.703 -11.263  0.00  0.00    +0.000 A 
ATOM      8  CD1 TYR B   1       3.135   8.578 -12.442  0.00  0.00    +0.000 A 
ATOM      9  CE2 TYR B   1       1.181   6.639 -12.148  0.00  0.00    +0.000 A 
ATOM     10  CE1 TYR B   1       2.076   8.521 -13.334  0.00  0.00    +0.000 A 
ATOM     11  CZ  TYR B   1       1.099   7.552 -13.181  0.00  0.00    +0.000 A 
ATOM     12  OH  TYR B   1       0.053   7.496 -14.062  0.00  0.00    +0.000 OA
ATOM     13  N   GLY B   2       3.272  10.592  -8.330  0.00  0.00    +0.000 N 
ATOM     14  CA  GLY B   2       3.100  12.024  -8.429  0.00  0.00    +0.000 C 
ATOM     15  C   GLY B   2       1.922  12.546  -7.639  0.00  0.00    +0.000 C 
ATOM     16  O   GLY B   2       1.071  11.783  -7.177  0.00  0.00    +0.000 OA
ATOM     17  H   TYR B   1       3.245   6.806  -8.250  0.00  0.00    +0.000 HD
ATOM     18  H   TYR B   1       2.170   7.881  -8.931  0.00  0.00    +0.000 HD
ATOM     19  H   TYR B   1       2.901   8.241  -7.479  0.00  0.00    +0.000 HD
ATOM     20  H   TYR B   1      -0.003   8.115 -14.763  0.00  0.00    +0.000 HD
ATOM     21  H   GLY B   2       2.966  10.115  -7.525  0.00  0.00    +0.000 HD
TER 
REMARK  Name = /data/user_data/xianyang/t3-aimnet-affinity-balanced/L3/Q9Y4K4/pocket.pdb
REMARK                            x       y       z     vdW  Elec       q    Type
REMARK                         _______ _______ _______ _____ _____    ______ ____
ATOM      1  N   VAL C   1      -1.221  15.602  -7.598  0.00  0.00    +0.000 N 
ATOM      2  CA  VAL C   1      -2.065  16.414  -8.460  0.00  0.00    +0.000 C 
ATOM      3  C   VAL C   1      -2.483  17.654  -7.687  0.00  0.00    +0.000 C 
ATOM      4  O   VAL C   1      -2.959  17.560  -6.552  0.00  0.00    +0.000 OA
ATOM      5  CB  VAL C   1      -3.298  15.637  -8.954  0.00  0.00    +0.000 C 
ATOM      6  CG1 VAL C   1      -4.143  16.505  -9.868  0.00  0.00    +0.000 C 
ATOM      7  CG2 VAL C   1      -2.849  14.372  -9.674  0.00  0.00    +0.000 C 
ATOM      8  H   VAL C   1      -0.930  14.763  -8.100  0.00  0.00    +0.000 HD
ATOM      9  H   VAL C   1      -1.744  15.335  -6.764  0.00  0.00    +0.000 HD
ATOM     10  H   VAL C   1      -0.397  16.139  -7.325  0.00  0.00    +0.000 HD
TER 
REMARK  Name = /data/user_data/xianyang/t3-aimnet-affinity-balanced/L3/Q9Y4K4/pocket.pdb
REMARK                            x       y       z     vdW  Elec       q    Type
REMARK                         _______ _______ _______ _____ _____    ______ ____
ATOM      1  N   ALA D   1      -5.631  21.295 -13.597  0.00  0.00    +0.000 N 
ATOM      2  CA  ALA D   1      -5.085  20.259 -12.740  0.00  0.00    +0.000 C 
ATOM      3  C   ALA D   1      -3.673  19.953 -13.209  0.00  0.00    +0.000 C 
ATOM      4  O   ALA D   1      -3.457  19.641 -14.381  0.00  0.00    +0.000 OA
ATOM      5  CB  ALA D   1      -5.951  19.003 -12.770  0.00  0.00    +0.000 C 
ATOM      6  H   ALA D   1      -5.033  22.120 -13.557  0.00  0.00    +0.000 HD
ATOM      7  H   ALA D   1      -6.569  21.539 -13.280  0.00  0.00    +0.000 HD
ATOM      8  H   ALA D   1      -5.675  20.954 -14.557  0.00  0.00    +0.000 HD
TER 
REMARK  Name = /data/user_data/xianyang/t3-aimnet-affinity-balanced/L3/Q9Y4K4/pocket.pdb
REMARK                            x       y       z     vdW  Elec       q    Type
REMARK                         _______ _______ _______ _____ _____    ______ ____
ATOM      1  N   LYS E   1      -0.379  17.633 -12.596  0.00  0.00    +0.000 N 
ATOM      2  CA  LYS E   1       0.221  16.446 -12.006  0.00  0.00    +0.000 C 
ATOM      3  C   LYS E   1       1.730  16.620 -12.011  0.00  0.00    +0.000 C 
ATOM      4  O   LYS E   1       2.340  16.736 -13.077  0.00  0.00    +0.000 OA
ATOM      5  CB  LYS E   1      -0.188  15.196 -12.785  0.00  0.00    +0.000 C 
ATOM      6  CG  LYS E   1       0.345  13.897 -12.200  0.00  0.00    +0.000 C 
ATOM      7  CD  LYS E   1      -0.131  12.706 -13.024  0.00  0.00    +0.000 C 
ATOM      8  CE  LYS E   1       0.363  11.391 -12.455  0.00  0.00    +0.000 C 
ATOM      9  NZ  LYS E   1      -0.077  10.237 -13.277  0.00  0.00    +0.000 N 
ATOM     10  H   LYS E   1      -1.394  17.534 -12.601  0.00  0.00    +0.000 HD
ATOM     11  H   LYS E   1      -0.043  17.744 -13.553  0.00  0.00    +0.000 HD
ATOM     12  H   LYS E   1      -0.120  18.453 -12.048  0.00  0.00    +0.000 HD
ATOM     13  H   LYS E   1       0.304  10.325 -14.219  0.00  0.00    +0.000 HD
ATOM     14  H   LYS E   1      -1.096  10.221 -13.323  0.00  0.00    +0.000 HD
ATOM     15  H   LYS E   1       0.258   9.371 -12.854  0.00  0.00    +0.000 HD
TER 
REMARK  Name = /data/user_data/xianyang/t3-aimnet-affinity-balanced/L3/Q9Y4K4/pocket.pdb
REMARK                            x       y       z     vdW  Elec       q    Type
REMARK                         _______ _______ _______ _____ _____    ______ ____
ATOM      1  N   GLU F   1       1.288   8.023 -20.811  0.00  0.00    +0.000 N 
ATOM      2  CA  GLU F   1       0.216   8.928 -20.422  0.00  0.00    +0.000 C 
ATOM      3  C   GLU F   1       0.293  10.233 -21.204  0.00  0.00    +0.000 C 
ATOM      4  O   GLU F   1      -0.727  10.758 -21.651  0.00  0.00    +0.000 OA
ATOM      5  CB  GLU F   1       0.269   9.194 -18.920  0.00  0.00    +0.000 C 
ATOM      6  CG  GLU F   1      -0.859  10.081 -18.414  0.00  0.00    +0.000 C 
ATOM      7  CD  GLU F   1      -0.847  10.247 -16.908  0.00  0.00    +0.000 C 
ATOM      8  OE2 GLU F   1       0.108   9.778 -16.263  0.00  0.00    +0.000 OA
ATOM      9  OE1 GLU F   1      -1.793  10.844 -16.368  0.00  0.00    +0.000 OA
ATOM     10  H   GLU F   1       1.242   7.853 -21.816  0.00  0.00    +0.000 HD
ATOM     11  H   GLU F   1       1.185   7.139 -20.312  0.00  0.00    +0.000 HD
ATOM     12  H   GLU F   1       2.188   8.442 -20.578  0.00  0.00    +0.000 HD
TER 
REMARK  Name = /data/user_data/xianyang/t3-aimnet-affinity-balanced/L3/Q9Y4K4/pocket.pdb
REMARK                            x       y       z     vdW  Elec       q    Type
REMARK                         _______ _______ _______ _____ _____    ______ ____
ATOM      1  N   VAL G   1     -10.470  13.877 -20.056  0.00  0.00    +0.000 N 
ATOM      2  CA  VAL G   1      -9.845  15.034 -19.433  0.00  0.00    +0.000 C 
ATOM      3  C   VAL G   1      -8.919  15.686 -20.450  0.00  0.00    +0.000 C 
ATOM      4  O   VAL G   1      -8.039  15.033 -21.015  0.00  0.00    +0.000 OA
ATOM      5  CB  VAL G   1      -9.073  14.635 -18.160  0.00  0.00    +0.000 C 
ATOM      6  CG1 VAL G   1      -8.280  15.812 -17.628  0.00  0.00    +0.000 C 
ATOM      7  CG2 VAL G   1     -10.049  14.129 -17.103  0.00  0.00    +0.000 C 
ATOM      8  H   VAL G   1     -10.972  14.172 -20.894  0.00  0.00    +0.000 HD
ATOM      9  H   VAL G   1     -11.124  13.450 -19.400  0.00  0.00    +0.000 HD
ATOM     10  H   VAL G   1      -9.752  13.199 -20.311  0.00  0.00    +0.000 HD
TER 
REMARK  Name = /data/user_data/xianyang/t3-aimnet-affinity-balanced/L3/Q9Y4K4/pocket.pdb
REMARK                            x       y       z     vdW  Elec       q    Type
REMARK                         _______ _______ _______ _____ _____    ______ ____
ATOM      1  N   MET H   1      -3.670  19.592 -17.076  0.00  0.00    +0.000 N 
ATOM      2  CA  MET H   1      -4.888  19.024 -17.621  0.00  0.00    +0.000 C 
ATOM      3  C   MET H   1      -6.099  19.820 -17.170  0.00  0.00    +0.000 C 
ATOM      4  O   MET H   1      -6.001  20.738 -16.340  0.00  0.00    +0.000 OA
ATOM      5  CB  MET H   1      -5.031  17.561 -17.194  0.00  0.00    +0.000 C 
ATOM      6  CG  MET H   1      -3.946  16.647 -17.702  0.00  0.00    +0.000 C 
ATOM      7  SD  MET H   1      -3.885  15.084 -16.806  0.00  0.00    +0.000 S 
ATOM      8  CE  MET H   1      -3.323  15.666 -15.207  0.00  0.00    +0.000 C 
ATOM      9  N   GLU H   2      -7.224  19.463 -17.729  0.00  0.00    +0.000 N 
ATOM     10  CA  GLU H   2      -8.491  20.046 -17.335  0.00  0.00    +0.000 C 
ATOM     11  C   GLU H   2      -8.788  19.714 -15.876  0.00  0.00    +0.000 C 
ATOM     12  O   GLU H   2      -8.574  18.586 -15.429  0.00  0.00    +0.000 OA
ATOM     13  CB  GLU H   2      -9.599  19.529 -18.248  0.00  0.00    +0.000 C 
ATOM     14  CG  GLU H   2     -11.005  19.940 -17.851  0.00  0.00    +0.000 C 
ATOM     15  CD  GLU H   2     -12.061  19.275 -18.720  0.00  0.00    +0.000 C 
ATOM     16  OE1 GLU H   2     -11.702  18.414 -19.550  0.00  0.00    +0.000 OA
ATOM     17  OE2 GLU H   2     -13.249  19.611 -18.571  0.00  0.00    +0.000 OA
ATOM     18  N   TYR H   3      -9.287  20.693 -15.149  0.00  0.00    +0.000 N 
ATOM     19  CA  TYR H   3      -9.620  20.503 -13.746  0.00  0.00    +0.000 C 
ATOM     20  C   TYR H   3     -11.066  20.063 -13.614  0.00  0.00    +0.000 C 
ATOM     21  O   TYR H   3     -11.970  20.694 -14.165  0.00  0.00    +0.000 OA
ATOM     22  CB  TYR H   3      -9.379  21.779 -12.945  0.00  0.00    +0.000 C 
ATOM     23  CG  TYR H   3      -9.745  21.640 -11.484  0.00  0.00    +0.000 A 
ATOM     24  CD2 TYR H   3      -9.000  20.824 -10.637  0.00  0.00    +0.000 A 
ATOM     25  CD1 TYR H   3     -10.839  22.319 -10.959  0.00  0.00    +0.000 A 
ATOM     26  CE2 TYR H   3      -9.336  20.688  -9.297  0.00  0.00    +0.000 A 
ATOM     27  CE1 TYR H   3     -11.179  22.189  -9.616  0.00  0.00    +0.000 A 
ATOM     28  CZ  TYR H   3     -10.422  21.376  -8.794  0.00  0.00    +0.000 A 
ATOM     29  OH  TYR H   3     -10.754  21.247  -7.469  0.00  0.00    +0.000 OA
ATOM     30  N   CYS H   4     -11.261  18.969 -12.884  0.00  0.00    +0.000 N 
ATOM     31  CA  CYS H   4     -12.585  18.438 -12.600  0.00  0.00    +0.000 C 
ATOM     32  C   CYS H   4     -12.864  18.635 -11.120  0.00  0.00    +0.000 C 
ATOM     33  O   CYS H   4     -12.431  17.840 -10.279  0.00  0.00    +0.000 OA
ATOM     34  CB  CYS H   4     -12.677  16.965 -12.996  0.00  0.00    +0.000 C 
ATOM     35  SG  CYS H   4     -12.287  16.659 -14.735  0.00  0.00    +0.000 S 
ATOM     36  N   GLY H   5     -13.583  19.703 -10.814  0.00  0.00    +0.000 N 
ATOM     37  CA  GLY H   5     -13.770  20.079  -9.432  0.00  0.00    +0.000 C 
ATOM     38  C   GLY H   5     -14.593  19.110  -8.610  0.00  0.00    +0.000 C 
ATOM     39  O   GLY H   5     -14.525  19.138  -7.382  0.00  0.00    +0.000 OA
ATOM     40  N   GLY H   6     -15.358  18.272  -9.260  0.00  0.00    +0.000 N 
ATOM     41  CA  GLY H   6     -16.149  17.300  -8.530  0.00  0.00    +0.000 C 
ATOM     42  C   GLY H   6     -15.367  16.122  -7.989  0.00  0.00    +0.000 C 
ATOM     43  O   GLY H   6     -15.879  15.384  -7.143  0.00  0.00    +0.000 OA
ATOM     44  N   GLY H   7     -14.155  15.912  -8.462  0.00  0.00    +0.000 N 
ATOM     45  CA  GLY H   7     -13.347  14.800  -8.016  0.00  0.00    +0.000 C 
ATOM     46  C   GLY H   7     -13.719  13.509  -8.715  0.00  0.00    +0.000 C 
ATOM     47  O   GLY H   7     -14.518  13.486  -9.655  0.00  0.00    +0.000 OA
ATOM     48  N   SER H   8     -13.127  12.440  -8.260  0.00  0.00    +0.000 N 
ATOM     49  CA  SER H   8     -13.384  11.137  -8.839  0.00  0.00    +0.000 C 
ATOM     50  CB  SER H   8     -14.618  10.506  -8.201  0.00  0.00    +0.000 C 
ATOM     51  OG  SER H   8     -15.023  10.870  -7.095  0.00  0.00    +0.000 OA
ATOM     52  C   SER H   8     -12.173  10.220  -8.665  0.00  0.00    +0.000 C 
ATOM     53  O   SER H   8     -12.026   9.830  -7.316  0.00  0.00    +0.000 OA
ATOM     54  H   MET H   1      -2.869  19.044 -17.390  0.00  0.00    +0.000 HD
ATOM     55  H   MET H   1      -3.714  19.577 -16.057  0.00  0.00    +0.000 HD
ATOM     56  H   MET H   1      -3.570  20.555 -17.398  0.00  0.00    +0.000 HD
ATOM     57  H   GLU H   2      -7.211  18.779 -18.437  0.00  0.00    +0.000 HD
ATOM     58  H   TYR H   3      -9.438  21.573 -15.565  0.00  0.00    +0.000 HD
ATOM     59  H   TYR H   3     -11.490  21.712  -7.123  0.00  0.00    +0.000 HD
ATOM     60  H   CYS H   4     -10.476  18.499 -12.520  0.00  0.00    +0.000 HD
ATOM     61  H   CYS H   4     -11.002  17.030 -14.984  0.00  0.00    +0.000 HD
ATOM     62  H   GLY H   5     -13.991  20.242 -11.530  0.00  0.00    +0.000 HD
ATOM     63  H   GLY H   6     -15.397  18.301 -10.243  0.00  0.00    +0.000 HD
ATOM     64  H   GLY H   7     -13.790  16.529  -9.137  0.00  0.00    +0.000 HD
ATOM     65  H   SER H   8     -12.494  12.520  -7.510  0.00  0.00    +0.000 HD
ATOM     66  H   SER H   8     -11.892  10.617  -6.765  0.00  0.00    +0.000 HD
TER 
REMARK  Name = /data/user_data/xianyang/t3-aimnet-affinity-balanced/L3/Q9Y4K4/pocket.pdb
REMARK                            x       y       z     vdW  Elec       q    Type
REMARK                         _______ _______ _______ _____ _____    ______ ____
ATOM      1  N   GLN I   1     -14.768   7.549  -7.069  0.00  0.00    +0.000 N 
ATOM      2  CA  GLN I   1     -14.344   6.865  -5.860  0.00  0.00    +0.000 C 
ATOM      3  C   GLN I   1     -14.332   7.822  -4.672  0.00  0.00    +0.000 C 
ATOM      4  O   GLN I   1     -14.807   7.475  -3.588  0.00  0.00    +0.000 OA
ATOM      5  CB  GLN I   1     -12.958   6.238  -6.053  0.00  0.00    +0.000 C 
ATOM      6  CG  GLN I   1     -12.501   5.403  -4.875  0.00  0.00    +0.000 C 
ATOM      7  CD  GLN I   1     -11.087   4.892  -5.033  0.00  0.00    +0.000 C 
ATOM      8  OE1 GLN I   1     -10.145   5.666  -5.137  0.00  0.00    +0.000 OA
ATOM      9  NE2 GLN I   1     -10.933   3.578  -5.076  0.00  0.00    +0.000 N 
ATOM     10  N   ASP I   2     -13.794   9.024  -4.870  0.00  0.00    +0.000 N 
ATOM     11  CA  ASP I   2     -13.829  10.017  -3.805  0.00  0.00    +0.000 C 
ATOM     12  C   ASP I   2     -15.261  10.364  -3.427  0.00  0.00    +0.000 C 
ATOM     13  O   ASP I   2     -15.563  10.609  -2.254  0.00  0.00    +0.000 OA
ATOM     14  CB  ASP I   2     -13.082  11.284  -4.233  0.00  0.00    +0.000 C 
ATOM     15  CG  ASP I   2     -11.609  11.027  -4.489  0.00  0.00    +0.000 C 
ATOM     16  OD2 ASP I   2     -11.061  10.072  -3.913  0.00  0.00    +0.000 OA
ATOM     17  OD1 ASP I   2     -11.009  11.787  -5.268  0.00  0.00    +0.000 OA
ATOM     18  H   GLN I   1     -14.769   6.892  -7.849  0.00  0.00    +0.000 HD
ATOM     19  H   GLN I   1     -14.125   8.315  -7.270  0.00  0.00    +0.000 HD
ATOM     20  H   GLN I   1     -15.708   7.921  -6.937  0.00  0.00    +0.000 HD
ATOM     21  H   GLN I   1     -10.034   3.191  -5.178  0.00  0.00    +0.000 HD
ATOM     22  H   GLN I   1     -11.718   2.988  -5.006  0.00  0.00    +0.000 HD
ATOM     23  H   ASP I   2     -13.374   9.241  -5.734  0.00  0.00    +0.000 HD
TER 
REMARK  Name = /data/user_data/xianyang/t3-aimnet-affinity-balanced/L3/Q9Y4K4/pocket.pdb
REMARK                            x       y       z     vdW  Elec       q    Type
REMARK                         _______ _______ _______ _____ _____    ______ ____
ATOM      1  N   GLY J   1     -13.876   3.574 -10.908  0.00  0.00    +0.000 N 
ATOM      2  CA  GLY J   1     -14.443   4.778 -10.332  0.00  0.00    +0.000 C 
ATOM      3  C   GLY J   1     -13.407   5.816  -9.945  0.00  0.00    +0.000 C 
ATOM      4  O   GLY J   1     -13.684   7.014  -9.995  0.00  0.00    +0.000 OA
ATOM      5  N   ALA J   2     -12.215   5.364  -9.577  0.00  0.00    +0.000 N 
ATOM      6  CA  ALA J   2     -11.165   6.298  -9.207  0.00  0.00    +0.000 C 
ATOM      7  C   ALA J   2     -10.667   7.113 -10.388  0.00  0.00    +0.000 C 
ATOM      8  O   ALA J   2     -10.115   8.198 -10.188  0.00  0.00    +0.000 OA
ATOM      9  CB  ALA J   2     -10.003   5.549  -8.561  0.00  0.00    +0.000 C 
ATOM     10  N   ASN J   3     -10.840   6.614 -11.598  0.00  0.00    +0.000 N 
ATOM     11  CA  ASN J   3     -10.372   7.287 -12.799  0.00  0.00    +0.000 C 
ATOM     12  C   ASN J   3     -11.505   7.893 -13.614  0.00  0.00    +0.000 C 
ATOM     13  O   ASN J   3     -11.303   8.249 -14.778  0.00  0.00    +0.000 OA
ATOM     14  CB  ASN J   3      -9.562   6.321 -13.668  0.00  0.00    +0.000 C 
ATOM     15  CG  ASN J   3      -8.239   5.965 -13.031  0.00  0.00    +0.000 C 
ATOM     16  OD1 ASN J   3      -7.719   6.704 -12.198  0.00  0.00    +0.000 OA
ATOM     17  ND2 ASN J   3      -7.684   4.821 -13.416  0.00  0.00    +0.000 N 
ATOM     18  N   ILE J   4     -12.677   7.996 -13.046  0.00  0.00    +0.000 N 
ATOM     19  CA  ILE J   4     -13.800   8.676 -13.663  0.00  0.00    +0.000 C 
ATOM     20  C   ILE J   4     -14.076   9.919 -12.837  0.00  0.00    +0.000 C 
ATOM     21  O   ILE J   4     -14.477   9.824 -11.675  0.00  0.00    +0.000 OA
ATOM     22  CB  ILE J   4     -15.040   7.773 -13.744  0.00  0.00    +0.000 C 
ATOM     23  CG1 ILE J   4     -14.717   6.510 -14.550  0.00  0.00    +0.000 C 
ATOM     24  CG2 ILE J   4     -16.199   8.526 -14.370  0.00  0.00    +0.000 C 
ATOM     25  CD1 ILE J   4     -15.849   5.503 -14.582  0.00  0.00    +0.000 C 
ATOM     26  N   LEU J   5     -13.850  11.083 -13.427  0.00  0.00    +0.000 N 
ATOM     27  CA  LEU J   5     -13.945  12.348 -12.723  0.00  0.00    +0.000 C 
ATOM     28  C   LEU J   5     -15.218  13.087 -13.103  0.00  0.00    +0.000 C 
ATOM     29  O   LEU J   5     -15.803  12.855 -14.162  0.00  0.00    +0.000 OA
ATOM     30  CB  LEU J   5     -12.727  13.226 -13.017  0.00  0.00    +0.000 C 
ATOM     31  CG  LEU J   5     -11.353  12.599 -12.767  0.00  0.00    +0.000 C 
ATOM     32  CD1 LEU J   5     -10.255  13.588 -13.116  0.00  0.00    +0.000 C 
ATOM     33  CD2 LEU J   5     -11.226  12.148 -11.328  0.00  0.00    +0.000 C 
ATOM     34  H   GLY J   1     -14.626   2.924 -11.143  0.00  0.00    +0.000 HD
ATOM     35  H   GLY J   1     -13.247   3.138 -10.234  0.00  0.00    +0.000 HD
ATOM     36  H   GLY J   1     -13.356   3.813 -11.752  0.00  0.00    +0.000 HD
ATOM     37  H   ALA J   2     -12.042   4.395  -9.555  0.00  0.00    +0.000 HD
ATOM     38  H   ASN J   3     -11.305   5.751 -11.691  0.00  0.00    +0.000 HD
ATOM     39  H   ASN J   3      -8.133   4.257 -14.086  0.00  0.00    +0.000 HD
ATOM     40  H   ASN J   3      -6.824   4.537 -13.031  0.00  0.00    +0.000 HD
ATOM     41  H   ILE J   4     -12.804   7.593 -12.157  0.00  0.00    +0.000 HD
ATOM     42  H   LEU J   5     -13.608  11.090 -14.381  0.00  0.00    +0.000 HD
TER 
REMARK  Name = /data/user_data/xianyang/t3-aimnet-affinity-balanced/L3/Q9Y4K4/pocket.pdb
REMARK                            x       y       z     vdW  Elec       q    Type
REMARK                         _______ _______ _______ _____ _____    ______ ____
ATOM      1  N   ALA K   1      -9.920   9.857 -16.866  0.00  0.00    +0.000 N 
ATOM      2  CA  ALA K   1      -8.618  10.387 -16.492  0.00  0.00    +0.000 C 
ATOM      3  C   ALA K   1      -7.643   9.255 -16.224  0.00  0.00    +0.000 C 
ATOM      4  O   ALA K   1      -8.006   8.081 -16.234  0.00  0.00    +0.000 OA
ATOM      5  CB  ALA K   1      -8.741  11.298 -15.271  0.00  0.00    +0.000 C 
ATOM      6  N   ASP K   2      -6.396   9.636 -15.971  0.00  0.00    +0.000 N 
ATOM      7  CA  ASP K   2      -5.309   8.732 -15.621  0.00  0.00    +0.000 C 
ATOM      8  C   ASP K   2      -5.070   7.708 -16.723  0.00  0.00    +0.000 C 
ATOM      9  O   ASP K   2      -5.498   6.559 -16.639  0.00  0.00    +0.000 OA
ATOM     10  CB  ASP K   2      -5.549   8.051 -14.273  0.00  0.00    +0.000 C 
ATOM     11  CG  ASP K   2      -4.257   7.475 -13.702  0.00  0.00    +0.000 C 
ATOM     12  OD1 ASP K   2      -3.243   7.400 -14.428  0.00  0.00    +0.000 OA
ATOM     13  OD2 ASP K   2      -4.257   7.106 -12.513  0.00  0.00    +0.000 OA
ATOM     14  N   PHE K   3      -4.376   8.150 -17.749  0.00  0.00    +0.000 N 
ATOM     15  CA  PHE K   3      -3.986   7.293 -18.865  0.00  0.00    +0.000 C 
ATOM     16  C   PHE K   3      -2.578   6.745 -18.691  0.00  0.00    +0.000 C 
ATOM     17  O   PHE K   3      -1.888   6.467 -19.677  0.00  0.00    +0.000 OA
ATOM     18  CB  PHE K   3      -4.097   8.061 -20.180  0.00  0.00    +0.000 C 
ATOM     19  CG  PHE K   3      -5.510   8.381 -20.566  0.00  0.00    +0.000 A 
ATOM     20  CD2 PHE K   3      -6.140   9.502 -20.057  0.00  0.00    +0.000 A 
ATOM     21  CD1 PHE K   3      -6.203   7.563 -21.436  0.00  0.00    +0.000 A 
ATOM     22  CE2 PHE K   3      -7.445   9.803 -20.405  0.00  0.00    +0.000 A 
ATOM     23  CE1 PHE K   3      -7.506   7.861 -21.793  0.00  0.00    +0.000 A 
ATOM     24  CZ  PHE K   3      -8.129   8.983 -21.281  0.00  0.00    +0.000 A 
ATOM     25  H   ALA K   1      -9.820   9.252 -17.681  0.00  0.00    +0.000 HD
ATOM     26  H   ALA K   1     -10.549  10.628 -17.090  0.00  0.00    +0.000 HD
ATOM     27  H   ALA K   1     -10.304   9.319 -16.089  0.00  0.00    +0.000 HD
ATOM     28  H   ASP K   2      -6.192  10.598 -16.024  0.00  0.00    +0.000 HD
ATOM     29  H   PHE K   3      -4.109   9.097 -17.765  0.00  0.00    +0.000 HD
TER 
REMARK  Name = /data/user_data/xianyang/t3-aimnet-affinity-balanced/L3/Q9Y4K4/pocket.pdb
REMARK                            x       y       z     vdW  Elec       q    Type
REMARK                         _______ _______ _______ _____ _____    ______ ____
ATOM      1  N   THR L   1      -4.733  15.525   0.506  0.00  0.00    +0.000 N 
ATOM      2  CA  THR L   1      -5.653  16.392  -0.191  0.00  0.00    +0.000 C 
ATOM      3  C   THR L   1      -6.642  16.995   0.799  0.00  0.00    +0.000 C 
ATOM      4  O   THR L   1      -7.084  16.334   1.738  0.00  0.00    +0.000 OA
ATOM      5  CB  THR L   1      -6.409  15.636  -1.277  0.00  0.00    +0.000 C 
ATOM      6  OG1 THR L   1      -7.257  16.527  -1.997  0.00  0.00    +0.000 OA
ATOM      7  CG2 THR L   1      -7.228  14.508  -0.682  0.00  0.00    +0.000 C 
ATOM      8  H   THR L   1      -4.073  15.124  -0.160  0.00  0.00    +0.000 HD
ATOM      9  H   THR L   1      -5.252  14.776   0.964  0.00  0.00    +0.000 HD
ATOM     10  H   THR L   1      -4.224  16.063   1.207  0.00  0.00    +0.000 HD
ATOM     11  H   THR L   1      -7.909  16.913  -1.391  0.00  0.00    +0.000 HD
TER 
REMARK  Name = /data/user_data/xianyang/t3-aimnet-affinity-balanced/L3/Q9Y4K4/pocket.pdb
REMARK                            x       y       z     vdW  Elec       q    Type
REMARK                         _______ _______ _______ _____ _____    ______ ____
ATOM      1  N   ARG M   1      -9.444  18.318  -0.508  0.00  0.00    +0.000 N 
ATOM      2  CA  ARG M   1     -10.632  18.413  -1.324  0.00  0.00    +0.000 C 
ATOM      3  C   ARG M   1     -11.893  18.214  -0.495  0.00  0.00    +0.000 C 
ATOM      4  O   ARG M   1     -12.924  18.846  -0.749  0.00  0.00    +0.000 OA
ATOM      5  CB  ARG M   1     -10.554  17.397  -2.465  0.00  0.00    +0.000 C 
ATOM      6  CG  ARG M   1     -11.827  17.256  -3.273  0.00  0.00    +0.000 C 
ATOM      7  CD  ARG M   1     -12.088  18.504  -4.069  0.00  0.00    +0.000 C 
ATOM      8  NE  ARG M   1     -13.268  18.353  -4.924  0.00  0.00    +0.000 N 
ATOM      9  CZ  ARG M   1     -14.516  18.455  -4.520  0.00  0.00    +0.000 C 
ATOM     10  NH2 ARG M   1     -14.775  18.696  -3.257  0.00  0.00    +0.000 N 
ATOM     11  NH1 ARG M   1     -15.513  18.292  -5.377  0.00  0.00    +0.000 N 
ATOM     12  H   ARG M   1      -8.619  18.455  -1.092  0.00  0.00    +0.000 HD
ATOM     13  H   ARG M   1      -9.403  17.396  -0.073  0.00  0.00    +0.000 HD
ATOM     14  H   ARG M   1      -9.471  19.035   0.217  0.00  0.00    +0.000 HD
ATOM     15  H   ARG M   1     -13.115  18.160  -5.877  0.00  0.00    +0.000 HD
ATOM     16  H   ARG M   1     -15.708  18.773  -2.952  0.00  0.00    +0.000 HD
ATOM     17  H   ARG M   1     -14.037  18.800  -2.614  0.00  0.00    +0.000 HD
ATOM     18  H   ARG M   1     -15.322  18.111  -6.326  0.00  0.00    +0.000 HD
ATOM     19  H   ARG M   1     -16.445  18.352  -5.065  0.00  0.00    +0.000 HD
TER 
REMARK  Name = /data/user_data/xianyang/t3-aimnet-affinity-balanced/L3/Q9Y4K4/pocket.pdb
REMARK                            x       y       z     vdW  Elec       q    Type
REMARK                         _______ _______ _______ _____ _____    ______ ____
ATOM      1  N   LYS N   1      -8.545   6.370   1.036  0.00  0.00    +0.000 N 
ATOM      2  CA  LYS N   1      -7.188   6.413   0.506  0.00  0.00    +0.000 C 
ATOM      3  C   LYS N   1      -6.441   7.677   0.909  0.00  0.00    +0.000 C 
ATOM      4  O   LYS N   1      -5.215   7.727   0.790  0.00  0.00    +0.000 OA
ATOM      5  CB  LYS N   1      -7.225   6.295  -1.020  0.00  0.00    +0.000 C 
ATOM      6  CG  LYS N   1      -8.062   7.363  -1.710  0.00  0.00    +0.000 C 
ATOM      7  CD  LYS N   1      -8.158   7.071  -3.198  0.00  0.00    +0.000 C 
ATOM      8  CE  LYS N   1      -9.051   8.074  -3.918  0.00  0.00    +0.000 C 
ATOM      9  NZ  LYS N   1      -8.422   9.430  -3.958  0.00  0.00    +0.000 N 
ATOM     10  N   PHE N   2      -7.154   8.692   1.373  0.00  0.00    +0.000 N 
ATOM     11  CA  PHE N   2      -6.546   9.931   1.833  0.00  0.00    +0.000 C 
ATOM     12  C   PHE N   2      -6.617  10.096   3.341  0.00  0.00    +0.000 C 
ATOM     13  O   PHE N   2      -6.123  11.100   3.867  0.00  0.00    +0.000 OA
ATOM     14  CB  PHE N   2      -7.221  11.136   1.171  0.00  0.00    +0.000 C 
ATOM     15  CG  PHE N   2      -7.126  11.143  -0.330  0.00  0.00    +0.000 A 
ATOM     16  CD2 PHE N   2      -5.935  10.859  -0.969  0.00  0.00    +0.000 A 
ATOM     17  CD1 PHE N   2      -8.235  11.462  -1.102  0.00  0.00    +0.000 A 
ATOM     18  CE2 PHE N   2      -5.848  10.878  -2.345  0.00  0.00    +0.000 A 
ATOM     19  CE1 PHE N   2      -8.157  11.482  -2.478  0.00  0.00    +0.000 A 
ATOM     20  CZ  PHE N   2      -6.964  11.191  -3.102  0.00  0.00    +0.000 A 
ATOM     21  H   LYS N   1      -8.999   5.507   0.738  0.00  0.00    +0.000 HD
ATOM     22  H   LYS N   1      -9.072   7.170   0.686  0.00  0.00    +0.000 HD
ATOM     23  H   LYS N   1      -8.513   6.403   2.055  0.00  0.00    +0.000 HD
ATOM     24  H   LYS N   1      -7.537   9.380  -4.463  0.00  0.00    +0.000 HD
ATOM     25  H   LYS N   1      -8.252   9.754  -3.006  0.00  0.00    +0.000 HD
ATOM     26  H   LYS N   1      -9.048  10.081  -4.432  0.00  0.00    +0.000 HD
ATOM     27  H   PHE N   2      -8.134   8.605   1.408  0.00  0.00    +0.000 HD
TER 
