REMARK  Name = /data/user_data/xianyang/t3-aimnet-affinity-balanced/L4/Q96PC2/pocket.pdb
REMARK                            x       y       z     vdW  Elec       q    Type
REMARK                         _______ _______ _______ _____ _____    ______ ____
ATOM      1  N   PHE A   1      -5.514  -5.808  -7.479  0.00  0.00    +0.000 N 
ATOM      2  CA  PHE A   1      -6.025  -5.869  -6.123  0.00  0.00    +0.000 C 
ATOM      3  C   PHE A   1      -7.443  -5.322  -6.106  0.00  0.00    +0.000 C 
ATOM      4  O   PHE A   1      -7.687  -4.175  -6.489  0.00  0.00    +0.000 OA
ATOM      5  CB  PHE A   1      -5.113  -5.085  -5.183  0.00  0.00    +0.000 C 
ATOM      6  CG  PHE A   1      -5.379  -5.358  -3.735  0.00  0.00    +0.000 A 
ATOM      7  CD1 PHE A   1      -5.185  -6.621  -3.210  0.00  0.00    +0.000 A 
ATOM      8  CD2 PHE A   1      -5.813  -4.348  -2.900  0.00  0.00    +0.000 A 
ATOM      9  CE1 PHE A   1      -5.426  -6.878  -1.869  0.00  0.00    +0.000 A 
ATOM     10  CE2 PHE A   1      -6.054  -4.599  -1.561  0.00  0.00    +0.000 A 
ATOM     11  CZ  PHE A   1      -5.859  -5.859  -1.048  0.00  0.00    +0.000 A 
ATOM     12  H   PHE A   1      -6.130  -6.334  -8.098  0.00  0.00    +0.000 HD
ATOM     13  H   PHE A   1      -4.577  -6.211  -7.508  0.00  0.00    +0.000 HD
ATOM     14  H   PHE A   1      -5.475  -4.836  -7.784  0.00  0.00    +0.000 HD
TER 
REMARK  Name = /data/user_data/xianyang/t3-aimnet-affinity-balanced/L4/Q96PC2/pocket.pdb
REMARK                            x       y       z     vdW  Elec       q    Type
REMARK                         _______ _______ _______ _____ _____    ______ ____
ATOM      1  N   HIS B   1      -9.523  -4.281  -3.901  0.00  0.00    +0.000 N 
ATOM      2  CA  HIS B   1      -9.870  -3.166  -3.040  0.00  0.00    +0.000 C 
ATOM      3  C   HIS B   1      -9.130  -1.884  -3.390  0.00  0.00    +0.000 C 
ATOM      4  O   HIS B   1      -9.254  -0.891  -2.669  0.00  0.00    +0.000 OA
ATOM      5  CB  HIS B   1      -9.620  -3.528  -1.576  0.00  0.00    +0.000 C 
ATOM      6  CG  HIS B   1     -10.440  -4.698  -1.114  0.00  0.00    +0.000 C 
ATOM      7  ND1 HIS B   1     -11.805  -4.628  -0.951  0.00  0.00    +0.000 NA
ATOM      8  CD2 HIS B   1     -10.077  -5.959  -0.790  0.00  0.00    +0.000 C 
ATOM      9  CE1 HIS B   1     -12.247  -5.802  -0.539  0.00  0.00    +0.000 C 
ATOM     10  NE2 HIS B   1     -11.226  -6.630  -0.437  0.00  0.00    +0.000 NA
ATOM     11  N   GLN B   2      -8.388  -1.870  -4.487  0.00  0.00    +0.000 N 
ATOM     12  CA  GLN B   2      -7.720  -0.652  -4.913  0.00  0.00    +0.000 C 
ATOM     13  C   GLN B   2      -8.746   0.347  -5.427  0.00  0.00    +0.000 C 
ATOM     14  O   GLN B   2      -9.635   0.006  -6.207  0.00  0.00    +0.000 OA
ATOM     15  CB  GLN B   2      -6.697  -0.946  -6.004  0.00  0.00    +0.000 C 
ATOM     16  CG  GLN B   2      -5.495  -1.736  -5.533  0.00  0.00    +0.000 C 
ATOM     17  CD  GLN B   2      -4.480  -0.872  -4.815  0.00  0.00    +0.000 C 
ATOM     18  OE1 GLN B   2      -4.581   0.352  -4.813  0.00  0.00    +0.000 OA
ATOM     19  NE2 GLN B   2      -3.488  -1.510  -4.213  0.00  0.00    +0.000 N 
ATOM     20  N   VAL B   3      -8.613   1.586  -4.962  0.00  0.00    +0.000 N 
ATOM     21  CA  VAL B   3      -9.458   2.671  -5.428  0.00  0.00    +0.000 C 
ATOM     22  C   VAL B   3      -8.573   3.787  -5.961  0.00  0.00    +0.000 C 
ATOM     23  O   VAL B   3      -8.422   3.950  -7.176  0.00  0.00    +0.000 OA
ATOM     24  CB  VAL B   3     -10.400   3.176  -4.313  0.00  0.00    +0.000 C 
ATOM     25  CG1 VAL B   3     -11.232   4.344  -4.817  0.00  0.00    +0.000 C 
ATOM     26  CG2 VAL B   3     -11.300   2.050  -3.840  0.00  0.00    +0.000 C 
ATOM     27  N   GLY B   4      -8.003   4.552  -5.086  0.00  0.00    +0.000 N 
ATOM     28  CA  GLY B   4      -7.084   5.600  -5.460  0.00  0.00    +0.000 C 
ATOM     29  C   GLY B   4      -5.713   5.346  -4.884  0.00  0.00    +0.000 C 
ATOM     30  O   GLY B   4      -5.567   5.061  -3.698  0.00  0.00    +0.000 OA
ATOM     31  N   GLY B   5      -4.700   5.440  -5.745  0.00  0.00    +0.000 N 
ATOM     32  CA  GLY B   5      -3.335   5.263  -5.304  0.00  0.00    +0.000 C 
ATOM     33  C   GLY B   5      -2.986   3.807  -5.105  0.00  0.00    +0.000 C 
ATOM     34  O   GLY B   5      -3.838   2.966  -4.831  0.00  0.00    +0.000 OA
ATOM     35  N   HIS B   6      -1.710   3.508  -5.260  0.00  0.00    +0.000 N 
ATOM     36  CA  HIS B   6      -1.146   2.183  -5.017  0.00  0.00    +0.000 C 
ATOM     37  C   HIS B   6      -1.741   1.123  -5.928  0.00  0.00    +0.000 C 
ATOM     38  O   HIS B   6      -1.915  -0.030  -5.530  0.00  0.00    +0.000 OA
ATOM     39  CB  HIS B   6      -1.307   1.787  -3.548  0.00  0.00    +0.000 C 
ATOM     40  CG  HIS B   6      -0.787   2.820  -2.599  0.00  0.00    +0.000 A 
ATOM     41  ND1 HIS B   6      -1.612   3.618  -1.855  0.00  0.00    +0.000 N 
ATOM     42  CD2 HIS B   6       0.476   3.183  -2.293  0.00  0.00    +0.000 A 
ATOM     43  CE1 HIS B   6      -0.878   4.431  -1.118  0.00  0.00    +0.000 A 
ATOM     44  NE2 HIS B   6       0.396   4.186  -1.367  0.00  0.00    +0.000 NA
ATOM     45  H   HIS B   1      -9.695  -4.026  -4.874  0.00  0.00    +0.000 HD
ATOM     46  H   HIS B   1     -10.094  -5.090  -3.656  0.00  0.00    +0.000 HD
ATOM     47  H   HIS B   1      -8.537  -4.511  -3.779  0.00  0.00    +0.000 HD
ATOM     48  H   GLN B   2      -8.288  -2.693  -5.019  0.00  0.00    +0.000 HD
ATOM     49  H   GLN B   2      -3.447  -2.493  -4.240  0.00  0.00    +0.000 HD
ATOM     50  H   GLN B   2      -2.792  -1.001  -3.738  0.00  0.00    +0.000 HD
ATOM     51  H   VAL B   3      -7.924   1.772  -4.284  0.00  0.00    +0.000 HD
ATOM     52  H   GLY B   4      -8.203   4.414  -4.132  0.00  0.00    +0.000 HD
ATOM     53  H   GLY B   5      -4.884   5.632  -6.693  0.00  0.00    +0.000 HD
ATOM     54  H   HIS B   6      -1.101   4.222  -5.558  0.00  0.00    +0.000 HD
ATOM     55  H   HIS B   6      -2.596   3.590  -1.867  0.00  0.00    +0.000 HD
TER 
REMARK  Name = /data/user_data/xianyang/t3-aimnet-affinity-balanced/L4/Q96PC2/pocket.pdb
REMARK                            x       y       z     vdW  Elec       q    Type
REMARK                         _______ _______ _______ _____ _____    ______ ____
ATOM      1  N   SER C   1      -0.149  -0.081  -8.198  0.00  0.00    +0.000 N 
ATOM      2  CA  SER C   1       0.973  -0.962  -8.471  0.00  0.00    +0.000 C 
ATOM      3  C   SER C   1       0.932  -2.238  -7.642  0.00  0.00    +0.000 C 
ATOM      4  O   SER C   1       1.620  -3.203  -7.971  0.00  0.00    +0.000 OA
ATOM      5  CB  SER C   1       2.287  -0.230  -8.206  0.00  0.00    +0.000 C 
ATOM      6  OG  SER C   1       2.357   0.207  -6.866  0.00  0.00    +0.000 OA
ATOM      7  N   VAL C   2       0.138  -2.258  -6.589  0.00  0.00    +0.000 N 
ATOM      8  CA  VAL C   2       0.023  -3.435  -5.750  0.00  0.00    +0.000 C 
ATOM      9  C   VAL C   2      -0.889  -4.441  -6.436  0.00  0.00    +0.000 C 
ATOM     10  O   VAL C   2      -1.986  -4.103  -6.885  0.00  0.00    +0.000 OA
ATOM     11  CB  VAL C   2      -0.515  -3.073  -4.354  0.00  0.00    +0.000 C 
ATOM     12  CG2 VAL C   2      -0.707  -4.323  -3.512  0.00  0.00    +0.000 C 
ATOM     13  CG1 VAL C   2       0.434  -2.097  -3.675  0.00  0.00    +0.000 C 
ATOM     14  H   SER C   1      -0.073   0.755  -8.777  0.00  0.00    +0.000 HD
ATOM     15  H   SER C   1      -0.140   0.185  -7.213  0.00  0.00    +0.000 HD
ATOM     16  H   SER C   1      -1.021  -0.565  -8.412  0.00  0.00    +0.000 HD
ATOM     17  H   SER C   1       1.626   0.820  -6.687  0.00  0.00    +0.000 HD
ATOM     18  H   VAL C   2      -0.388  -1.456  -6.368  0.00  0.00    +0.000 HD
TER 
REMARK  Name = /data/user_data/xianyang/t3-aimnet-affinity-balanced/L4/Q96PC2/pocket.pdb
REMARK                            x       y       z     vdW  Elec       q    Type
REMARK                         _______ _______ _______ _____ _____    ______ ____
ATOM      1  N   VAL D   1       0.371  -9.725  -1.146  0.00  0.00    +0.000 N 
ATOM      2  CA  VAL D   1       0.365  -8.854  -2.307  0.00  0.00    +0.000 C 
ATOM      3  C   VAL D   1       1.805  -8.622  -2.735  0.00  0.00    +0.000 C 
ATOM      4  O   VAL D   1       2.747  -8.896  -1.990  0.00  0.00    +0.000 OA
ATOM      5  CB  VAL D   1      -0.351  -7.515  -2.029  0.00  0.00    +0.000 C 
ATOM      6  CG1 VAL D   1      -1.807  -7.750  -1.681  0.00  0.00    +0.000 C 
ATOM      7  CG2 VAL D   1       0.361  -6.762  -0.915  0.00  0.00    +0.000 C 
ATOM      8  H   VAL D   1       0.853 -10.594  -1.376  0.00  0.00    +0.000 HD
ATOM      9  H   VAL D   1      -0.589  -9.931  -0.870  0.00  0.00    +0.000 HD
ATOM     10  H   VAL D   1       0.854  -9.262  -0.376  0.00  0.00    +0.000 HD
TER 
REMARK  Name = /data/user_data/xianyang/t3-aimnet-affinity-balanced/L4/Q96PC2/pocket.pdb
REMARK                            x       y       z     vdW  Elec       q    Type
REMARK                         _______ _______ _______ _____ _____    ______ ____
ATOM      1  N   LYS E   1       4.546  -6.036  -5.356  0.00  0.00    +0.000 N 
ATOM      2  CA  LYS E   1       4.795  -4.814  -6.093  0.00  0.00    +0.000 C 
ATOM      3  C   LYS E   1       6.220  -4.858  -6.617  0.00  0.00    +0.000 C 
ATOM      4  O   LYS E   1       7.072  -5.541  -6.044  0.00  0.00    +0.000 OA
ATOM      5  CB  LYS E   1       4.588  -3.576  -5.214  0.00  0.00    +0.000 C 
ATOM      6  CG  LYS E   1       5.458  -3.566  -3.970  0.00  0.00    +0.000 C 
ATOM      7  CD  LYS E   1       5.123  -2.400  -3.052  0.00  0.00    +0.000 C 
ATOM      8  CE  LYS E   1       5.528  -1.085  -3.663  0.00  0.00    +0.000 C 
ATOM      9  NZ  LYS E   1       5.380   0.042  -2.693  0.00  0.00    +0.000 N 
ATOM     10  H   LYS E   1       4.692  -6.838  -5.969  0.00  0.00    +0.000 HD
ATOM     11  H   LYS E   1       3.584  -6.038  -5.017  0.00  0.00    +0.000 HD
ATOM     12  H   LYS E   1       5.186  -6.092  -4.564  0.00  0.00    +0.000 HD
ATOM     13  H   LYS E   1       4.403   0.122  -2.411  0.00  0.00    +0.000 HD
ATOM     14  H   LYS E   1       5.679   0.912  -3.134  0.00  0.00    +0.000 HD
ATOM     15  H   LYS E   1       5.957  -0.138  -1.872  0.00  0.00    +0.000 HD
TER 
REMARK  Name = /data/user_data/xianyang/t3-aimnet-affinity-balanced/L4/Q96PC2/pocket.pdb
REMARK                            x       y       z     vdW  Elec       q    Type
REMARK                         _______ _______ _______ _____ _____    ______ ____
ATOM      1  N   GLU F   1      13.001   0.269  -0.485  0.00  0.00    +0.000 N 
ATOM      2  CA  GLU F   1      11.895  -0.287   0.281  0.00  0.00    +0.000 C 
ATOM      3  C   GLU F   1      12.233  -1.680   0.812  0.00  0.00    +0.000 C 
ATOM      4  O   GLU F   1      11.864  -2.030   1.934  0.00  0.00    +0.000 OA
ATOM      5  CB  GLU F   1      10.631  -0.324  -0.571  0.00  0.00    +0.000 C 
ATOM      6  CG  GLU F   1       9.384  -0.703   0.204  0.00  0.00    +0.000 C 
ATOM      7  CD  GLU F   1       8.105  -0.460  -0.576  0.00  0.00    +0.000 C 
ATOM      8  OE1 GLU F   1       8.175  -0.339  -1.822  0.00  0.00    +0.000 OA
ATOM      9  OE2 GLU F   1       7.028  -0.381   0.048  0.00  0.00    +0.000 OA
ATOM     10  H   GLU F   1      12.747   1.196  -0.825  0.00  0.00    +0.000 HD
ATOM     11  H   GLU F   1      13.206  -0.340  -1.277  0.00  0.00    +0.000 HD
ATOM     12  H   GLU F   1      13.826   0.340   0.111  0.00  0.00    +0.000 HD
TER 
REMARK  Name = /data/user_data/xianyang/t3-aimnet-affinity-balanced/L4/Q96PC2/pocket.pdb
REMARK                            x       y       z     vdW  Elec       q    Type
REMARK                         _______ _______ _______ _____ _____    ______ ____
ATOM      1  N   TYR G   1      12.194  -2.914   4.852  0.00  0.00    +0.000 N 
ATOM      2  CA  TYR G   1      11.508  -4.063   5.432  0.00  0.00    +0.000 C 
ATOM      3  C   TYR G   1      12.480  -5.037   6.084  0.00  0.00    +0.000 C 
ATOM      4  O   TYR G   1      12.129  -5.707   7.058  0.00  0.00    +0.000 OA
ATOM      5  CB  TYR G   1      10.674  -4.778   4.369  0.00  0.00    +0.000 C 
ATOM      6  CG  TYR G   1       9.345  -4.112   4.099  0.00  0.00    +0.000 A 
ATOM      7  CD2 TYR G   1       8.321  -4.173   5.036  0.00  0.00    +0.000 A 
ATOM      8  CD1 TYR G   1       9.107  -3.428   2.917  0.00  0.00    +0.000 A 
ATOM      9  CE2 TYR G   1       7.094  -3.571   4.801  0.00  0.00    +0.000 A 
ATOM     10  CE1 TYR G   1       7.886  -2.822   2.669  0.00  0.00    +0.000 A 
ATOM     11  CZ  TYR G   1       6.876  -2.896   3.615  0.00  0.00    +0.000 A 
ATOM     12  OH  TYR G   1       5.666  -2.306   3.374  0.00  0.00    +0.000 OA
ATOM     13  H   TYR G   1      11.510  -2.288   4.427  0.00  0.00    +0.000 HD
ATOM     14  H   TYR G   1      12.851  -3.234   4.140  0.00  0.00    +0.000 HD
ATOM     15  H   TYR G   1      12.702  -2.416   5.583  0.00  0.00    +0.000 HD
ATOM     16  H   TYR G   1       5.520  -1.849   2.569  0.00  0.00    +0.000 HD
TER 
REMARK  Name = /data/user_data/xianyang/t3-aimnet-affinity-balanced/L4/Q96PC2/pocket.pdb
REMARK                            x       y       z     vdW  Elec       q    Type
REMARK                         _______ _______ _______ _____ _____    ______ ____
ATOM      1  N   PRO H   1       3.151  -3.869   6.757  0.00  0.00    +0.000 N 
ATOM      2  CA  PRO H   1       2.882  -5.204   6.228  0.00  0.00    +0.000 C 
ATOM      3  C   PRO H   1       4.097  -6.099   6.428  0.00  0.00    +0.000 C 
ATOM      4  O   PRO H   1       5.238  -5.648   6.331  0.00  0.00    +0.000 OA
ATOM      5  CB  PRO H   1       2.609  -4.960   4.741  0.00  0.00    +0.000 C 
ATOM      6  CG  PRO H   1       2.237  -3.526   4.652  0.00  0.00    +0.000 C 
ATOM      7  CD  PRO H   1       3.028  -2.829   5.707  0.00  0.00    +0.000 C 
ATOM      8  H   PRO H   1       2.484  -3.668   7.502  0.00  0.00    +0.000 HD
ATOM      9  H   PRO H   1       4.108  -3.853   7.110  0.00  0.00    +0.000 HD
TER 
REMARK  Name = /data/user_data/xianyang/t3-aimnet-affinity-balanced/L4/Q96PC2/pocket.pdb
REMARK                            x       y       z     vdW  Elec       q    Type
REMARK                         _______ _______ _______ _____ _____    ______ ____
ATOM      1  N   TRP I   1       6.072  -0.728 -12.473  0.00  0.00    +0.000 N 
ATOM      2  CA  TRP I   1       5.405  -0.166 -11.302  0.00  0.00    +0.000 C 
ATOM      3  C   TRP I   1       4.890   1.236 -11.587  0.00  0.00    +0.000 C 
ATOM      4  O   TRP I   1       3.740   1.562 -11.261  0.00  0.00    +0.000 OA
ATOM      5  CB  TRP I   1       6.376  -0.166 -10.119  0.00  0.00    +0.000 C 
ATOM      6  CG  TRP I   1       5.808   0.362  -8.841  0.00  0.00    +0.000 C 
ATOM      7  CD1 TRP I   1       4.587   0.088  -8.303  0.00  0.00    +0.000 C 
ATOM      8  CD2 TRP I   1       6.450   1.256  -7.926  0.00  0.00    +0.000 C 
ATOM      9  NE1 TRP I   1       4.429   0.750  -7.115  0.00  0.00    +0.000 NA
ATOM     10  CE2 TRP I   1       5.560   1.473  -6.857  0.00  0.00    +0.000 C 
ATOM     11  CE3 TRP I   1       7.693   1.878  -7.904  0.00  0.00    +0.000 C 
ATOM     12  CZ2 TRP I   1       5.882   2.297  -5.775  0.00  0.00    +0.000 C 
ATOM     13  CZ3 TRP I   1       8.009   2.696  -6.831  0.00  0.00    +0.000 C 
ATOM     14  CH2 TRP I   1       7.103   2.894  -5.784  0.00  0.00    +0.000 C 
ATOM     15  H   TRP I   1       5.427  -0.729 -13.263  0.00  0.00    +0.000 HD
ATOM     16  H   TRP I   1       6.365  -1.684 -12.271  0.00  0.00    +0.000 HD
ATOM     17  H   TRP I   1       6.890  -0.163 -12.702  0.00  0.00    +0.000 HD
TER 
REMARK  Name = /data/user_data/xianyang/t3-aimnet-affinity-balanced/L4/Q96PC2/pocket.pdb
REMARK                            x       y       z     vdW  Elec       q    Type
REMARK                         _______ _______ _______ _____ _____    ______ ____
ATOM      1  N   LEU J   1       4.524  -8.814   0.131  0.00  0.00    +0.000 N 
ATOM      2  CA  LEU J   1       4.129  -8.167   1.372  0.00  0.00    +0.000 C 
ATOM      3  C   LEU J   1       2.790  -8.710   1.835  0.00  0.00    +0.000 C 
ATOM      4  O   LEU J   1       1.992  -9.215   1.041  0.00  0.00    +0.000 OA
ATOM      5  CB  LEU J   1       4.049  -6.646   1.198  0.00  0.00    +0.000 C 
ATOM      6  CG  LEU J   1       5.336  -5.956   0.763  0.00  0.00    +0.000 C 
ATOM      7  CD1 LEU J   1       5.072  -4.515   0.364  0.00  0.00    +0.000 C 
ATOM      8  CD2 LEU J   1       6.368  -6.021   1.881  0.00  0.00    +0.000 C 
ATOM      9  N   GLU J   2       2.560  -8.594   3.106  0.00  0.00    +0.000 N 
ATOM     10  CA  GLU J   2       1.318  -9.055   3.698  0.00  0.00    +0.000 C 
ATOM     11  C   GLU J   2       0.130  -8.297   3.117  0.00  0.00    +0.000 C 
ATOM     12  O   GLU J   2       0.165  -7.073   2.979  0.00  0.00    +0.000 OA
ATOM     13  CB  GLU J   2       1.367  -8.869   5.212  0.00  0.00    +0.000 C 
ATOM     14  CG  GLU J   2       0.069  -9.169   5.938  0.00  0.00    +0.000 C 
ATOM     15  CD  GLU J   2       0.076  -8.681   7.376  0.00  0.00    +0.000 C 
ATOM     16  OE1 GLU J   2       1.065  -8.033   7.779  0.00  0.00    +0.000 OA
ATOM     17  OE2 GLU J   2      -0.908  -8.929   8.092  0.00  0.00    +0.000 OA
ATOM     18  N   ASN J   3      -0.916  -9.029   2.773  0.00  0.00    +0.000 N 
ATOM     19  CA  ASN J   3      -2.197  -8.431   2.436  0.00  0.00    +0.000 C 
ATOM     20  C   ASN J   3      -2.905  -8.096   3.741  0.00  0.00    +0.000 C 
ATOM     21  O   ASN J   3      -3.489  -8.972   4.381  0.00  0.00    +0.000 OA
ATOM     22  CB  ASN J   3      -3.018  -9.384   1.573  0.00  0.00    +0.000 C 
ATOM     23  CG  ASN J   3      -4.362  -8.808   1.168  0.00  0.00    +0.000 C 
ATOM     24  OD1 ASN J   3      -4.769  -7.736   1.624  0.00  0.00    +0.000 OA
ATOM     25  ND2 ASN J   3      -5.072  -9.523   0.308  0.00  0.00    +0.000 N 
ATOM     26  N   VAL J   4      -2.861  -6.830   4.113  0.00  0.00    +0.000 N 
ATOM     27  CA  VAL J   4      -3.297  -6.437   5.445  0.00  0.00    +0.000 C 
ATOM     28  C   VAL J   4      -4.811  -6.437   5.592  0.00  0.00    +0.000 C 
ATOM     29  O   VAL J   4      -5.314  -6.263   6.704  0.00  0.00    +0.000 OA
ATOM     30  CB  VAL J   4      -2.736  -5.057   5.845  0.00  0.00    +0.000 C 
ATOM     31  CG2 VAL J   4      -1.221  -5.092   5.852  0.00  0.00    +0.000 C 
ATOM     32  CG1 VAL J   4      -3.246  -3.974   4.902  0.00  0.00    +0.000 C 
ATOM     33  N   VAL J   5      -5.551  -6.626   4.514  0.00  0.00    +0.000 N 
ATOM     34  CA  VAL J   5      -7.001  -6.707   4.596  0.00  0.00    +0.000 C 
ATOM     35  C   VAL J   5      -7.495  -8.131   4.393  0.00  0.00    +0.000 C 
ATOM     36  O   VAL J   5      -8.704  -8.352   4.265  0.00  0.00    +0.000 OA
ATOM     37  CB  VAL J   5      -7.691  -5.757   3.590  0.00  0.00    +0.000 C 
ATOM     38  CG2 VAL J   5      -7.274  -4.318   3.860  0.00  0.00    +0.000 C 
ATOM     39  CG1 VAL J   5      -7.366  -6.155   2.161  0.00  0.00    +0.000 C 
ATOM     40  H   LEU J   1       5.424  -8.444  -0.174  0.00  0.00    +0.000 HD
ATOM     41  H   LEU J   1       3.822  -8.632  -0.586  0.00  0.00    +0.000 HD
ATOM     42  H   LEU J   1       4.603  -9.820   0.282  0.00  0.00    +0.000 HD
ATOM     43  H   GLU J   2       3.244  -8.184   3.683  0.00  0.00    +0.000 HD
ATOM     44  H   ASN J   3      -0.824 -10.009   2.744  0.00  0.00    +0.000 HD
ATOM     45  H   ASN J   3      -4.717 -10.374  -0.036  0.00  0.00    +0.000 HD
ATOM     46  H   ASN J   3      -5.955  -9.203   0.013  0.00  0.00    +0.000 HD
ATOM     47  H   VAL J   4      -2.531  -6.147   3.485  0.00  0.00    +0.000 HD
ATOM     48  H   VAL J   5      -5.112  -6.714   3.637  0.00  0.00    +0.000 HD
TER 
REMARK  Name = /data/user_data/xianyang/t3-aimnet-affinity-balanced/L4/Q96PC2/pocket.pdb
REMARK                            x       y       z     vdW  Elec       q    Type
REMARK                         _______ _______ _______ _____ _____    ______ ____
ATOM      1  N   VAL K   1     -11.199   0.748   4.341  0.00  0.00    +0.000 N 
ATOM      2  CA  VAL K   1      -9.811   1.173   4.282  0.00  0.00    +0.000 C 
ATOM      3  C   VAL K   1      -9.761   2.672   4.037  0.00  0.00    +0.000 C 
ATOM      4  O   VAL K   1     -10.428   3.185   3.137  0.00  0.00    +0.000 OA
ATOM      5  CB  VAL K   1      -9.035   0.434   3.176  0.00  0.00    +0.000 C 
ATOM      6  CG1 VAL K   1      -7.565   0.823   3.209  0.00  0.00    +0.000 C 
ATOM      7  CG2 VAL K   1      -9.201  -1.075   3.330  0.00  0.00    +0.000 C 
ATOM      8  N   LEU K   2      -8.961   3.338   4.834  0.00  0.00    +0.000 N 
ATOM      9  CA  LEU K   2      -8.654   4.748   4.649  0.00  0.00    +0.000 C 
ATOM     10  C   LEU K   2      -7.168   4.860   4.369  0.00  0.00    +0.000 C 
ATOM     11  O   LEU K   2      -6.347   4.473   5.203  0.00  0.00    +0.000 OA
ATOM     12  CB  LEU K   2      -9.041   5.554   5.891  0.00  0.00    +0.000 C 
ATOM     13  CG  LEU K   2      -8.736   7.046   5.874  0.00  0.00    +0.000 C 
ATOM     14  CD1 LEU K   2      -9.585   7.751   4.827  0.00  0.00    +0.000 C 
ATOM     15  CD2 LEU K   2      -8.978   7.639   7.251  0.00  0.00    +0.000 C 
ATOM     16  N   ASP K   3      -6.832   5.365   3.194  0.00  0.00    +0.000 N 
ATOM     17  CA  ASP K   3      -5.445   5.525   2.776  0.00  0.00    +0.000 C 
ATOM     18  C   ASP K   3      -5.064   6.987   2.961  0.00  0.00    +0.000 C 
ATOM     19  O   ASP K   3      -5.610   7.866   2.291  0.00  0.00    +0.000 OA
ATOM     20  CB  ASP K   3      -5.277   5.076   1.322  0.00  0.00    +0.000 C 
ATOM     21  CG  ASP K   3      -3.829   5.101   0.852  0.00  0.00    +0.000 C 
ATOM     22  OD2 ASP K   3      -2.974   5.708   1.533  0.00  0.00    +0.000 OA
ATOM     23  OD1 ASP K   3      -3.549   4.515  -0.216  0.00  0.00    +0.000 OA
ATOM     24  H   VAL K   1     -11.240  -0.258   4.505  0.00  0.00    +0.000 HD
ATOM     25  H   VAL K   1     -11.660   0.967   3.458  0.00  0.00    +0.000 HD
ATOM     26  H   VAL K   1     -11.672   1.236   5.101  0.00  0.00    +0.000 HD
ATOM     27  H   LEU K   2      -8.550   2.863   5.592  0.00  0.00    +0.000 HD
ATOM     28  H   ASP K   3      -7.547   5.644   2.577  0.00  0.00    +0.000 HD
TER 
REMARK  Name = /data/user_data/xianyang/t3-aimnet-affinity-balanced/L4/Q96PC2/pocket.pdb
REMARK                            x       y       z     vdW  Elec       q    Type
REMARK                         _______ _______ _______ _____ _____    ______ ____
ATOM      1  N   CYS L   1      -5.787   9.780   0.510  0.00  0.00    +0.000 N 
ATOM      2  CA  CYS L   1      -5.408   9.275  -0.800  0.00  0.00    +0.000 C 
ATOM      3  C   CYS L   1      -6.471   8.345  -1.381  0.00  0.00    +0.000 C 
ATOM      4  O   CYS L   1      -6.559   8.179  -2.601  0.00  0.00    +0.000 OA
ATOM      5  CB  CYS L   1      -4.067   8.546  -0.702  0.00  0.00    +0.000 C 
ATOM      6  SG  CYS L   1      -3.433   7.943  -2.281  0.00  0.00    +0.000 S 
ATOM      7  N   GLY L   2      -7.265   7.738  -0.535  0.00  0.00    +0.000 N 
ATOM      8  CA  GLY L   2      -8.343   6.880  -0.975  0.00  0.00    +0.000 C 
ATOM      9  C   GLY L   2      -9.138   6.402   0.215  0.00  0.00    +0.000 C 
ATOM     10  O   GLY L   2      -8.647   6.374   1.342  0.00  0.00    +0.000 OA
ATOM     11  N   MET L   3     -10.363   6.019  -0.040  0.00  0.00    +0.000 N 
ATOM     12  CA  MET L   3     -11.248   5.585   1.026  0.00  0.00    +0.000 C 
ATOM     13  C   MET L   3     -12.218   4.551   0.493  0.00  0.00    +0.000 C 
ATOM     14  O   MET L   3     -12.735   4.683  -0.623  0.00  0.00    +0.000 OA
ATOM     15  CB  MET L   3     -12.006   6.773   1.621  0.00  0.00    +0.000 C 
ATOM     16  CG  MET L   3     -12.812   6.423   2.868  0.00  0.00    +0.000 C 
ATOM     17  SD  MET L   3     -13.458   7.890   3.706  0.00  0.00    +0.000 S 
ATOM     18  CE  MET L   3     -14.602   8.497   2.467  0.00  0.00    +0.000 C 
ATOM     19  N   GLN L   4     -12.457   3.546   1.280  0.00  0.00    +0.000 N 
ATOM     20  CA  GLN L   4     -13.393   2.479   0.954  0.00  0.00    +0.000 C 
ATOM     21  C   GLN L   4     -14.151   2.137   2.222  0.00  0.00    +0.000 C 
ATOM     22  O   GLN L   4     -13.550   1.696   3.207  0.00  0.00    +0.000 OA
ATOM     23  CB  GLN L   4     -12.664   1.256   0.409  0.00  0.00    +0.000 C 
ATOM     24  CG  GLN L   4     -13.556   0.068   0.096  0.00  0.00    +0.000 C 
ATOM     25  CD  GLN L   4     -12.759  -1.134  -0.353  0.00  0.00    +0.000 C 
ATOM     26  OE1 GLN L   4     -12.344  -1.221  -1.508  0.00  0.00    +0.000 OA
ATOM     27  NE2 GLN L   4     -12.512  -2.054   0.570  0.00  0.00    +0.000 N 
ATOM     28  H   CYS L   1      -6.681  10.266   0.441  0.00  0.00    +0.000 HD
ATOM     29  H   CYS L   1      -5.073  10.428   0.844  0.00  0.00    +0.000 HD
ATOM     30  H   CYS L   1      -5.872   9.001   1.163  0.00  0.00    +0.000 HD
ATOM     31  H   CYS L   1      -3.204   8.997  -3.110  0.00  0.00    +0.000 HD
ATOM     32  H   GLY L   2      -7.124   7.870   0.430  0.00  0.00    +0.000 HD
ATOM     33  H   MET L   3     -10.689   6.025  -0.969  0.00  0.00    +0.000 HD
ATOM     34  H   GLN L   4     -11.981   3.503   2.141  0.00  0.00    +0.000 HD
ATOM     35  H   GLN L   4     -11.997  -2.860   0.336  0.00  0.00    +0.000 HD
ATOM     36  H   GLN L   4     -12.844  -1.931   1.489  0.00  0.00    +0.000 HD
TER 
REMARK  Name = /data/user_data/xianyang/t3-aimnet-affinity-balanced/L4/Q96PC2/pocket.pdb
REMARK                            x       y       z     vdW  Elec       q    Type
REMARK                         _______ _______ _______ _____ _____    ______ ____
ATOM      1  N   LYS M   1     -13.855   6.433  -2.639  0.00  0.00    +0.000 N 
ATOM      2  CA  LYS M   1     -13.390   7.750  -3.038  0.00  0.00    +0.000 C 
ATOM      3  C   LYS M   1     -11.907   7.663  -3.340  0.00  0.00    +0.000 C 
ATOM      4  O   LYS M   1     -11.158   6.991  -2.634  0.00  0.00    +0.000 OA
ATOM      5  CB  LYS M   1     -13.664   8.791  -1.954  0.00  0.00    +0.000 C 
ATOM      6  CG  LYS M   1     -15.144   9.012  -1.700  0.00  0.00    +0.000 C 
ATOM      7  CD  LYS M   1     -15.399  10.052  -0.635  0.00  0.00    +0.000 C 
ATOM      8  CE  LYS M   1     -16.885  10.267  -0.427  0.00  0.00    +0.000 C 
ATOM      9  NZ  LYS M   1     -17.168  11.272   0.631  0.00  0.00    +0.000 N 
ATOM     10  H   LYS M   1     -13.658   5.763  -3.382  0.00  0.00    +0.000 HD
ATOM     11  H   LYS M   1     -14.860   6.465  -2.468  0.00  0.00    +0.000 HD
ATOM     12  H   LYS M   1     -13.374   6.146  -1.787  0.00  0.00    +0.000 HD
ATOM     13  H   LYS M   1     -16.788  10.946   1.520  0.00  0.00    +0.000 HD
ATOM     14  H   LYS M   1     -18.176  11.399   0.718  0.00  0.00    +0.000 HD
ATOM     15  H   LYS M   1     -16.734  12.160   0.381  0.00  0.00    +0.000 HD
TER 
REMARK  Name = /data/user_data/xianyang/t3-aimnet-affinity-balanced/L4/Q96PC2/pocket.pdb
REMARK                            x       y       z     vdW  Elec       q    Type
REMARK                         _______ _______ _______ _____ _____    ______ ____
ATOM      1  N   LEU N   1      -2.563   3.262   6.437  0.00  0.00    +0.000 N 
ATOM      2  CA  LEU N   1      -3.852   2.626   6.239  0.00  0.00    +0.000 C 
ATOM      3  C   LEU N   1      -4.554   2.475   7.574  0.00  0.00    +0.000 C 
ATOM      4  O   LEU N   1      -3.974   1.980   8.540  0.00  0.00    +0.000 OA
ATOM      5  CB  LEU N   1      -3.700   1.254   5.584  0.00  0.00    +0.000 C 
ATOM      6  CG  LEU N   1      -3.096   1.197   4.186  0.00  0.00    +0.000 C 
ATOM      7  CD2 LEU N   1      -3.054  -0.241   3.696  0.00  0.00    +0.000 C 
ATOM      8  CD1 LEU N   1      -3.890   2.066   3.226  0.00  0.00    +0.000 C 
ATOM      9  H   LEU N   1      -2.092   3.363   5.538  0.00  0.00    +0.000 HD
ATOM     10  H   LEU N   1      -1.992   2.688   7.057  0.00  0.00    +0.000 HD
ATOM     11  H   LEU N   1      -2.699   4.183   6.855  0.00  0.00    +0.000 HD
TER 
REMARK  Name = /data/user_data/xianyang/t3-aimnet-affinity-balanced/L4/Q96PC2/pocket.pdb
REMARK                            x       y       z     vdW  Elec       q    Type
REMARK                         _______ _______ _______ _____ _____    ______ ____
ATOM      1  N   ILE O   1      -7.811   0.577   8.950  0.00  0.00    +0.000 N 
ATOM      2  CA  ILE O   1      -8.606  -0.539   8.465  0.00  0.00    +0.000 C 
ATOM      3  C   ILE O   1      -9.527  -1.024   9.569  0.00  0.00    +0.000 C 
ATOM      4  O   ILE O   1      -9.117  -1.133  10.730  0.00  0.00    +0.000 OA
ATOM      5  CB  ILE O   1      -7.707  -1.697   7.987  0.00  0.00    +0.000 C 
ATOM      6  CG1 ILE O   1      -6.649  -1.191   7.000  0.00  0.00    +0.000 C 
ATOM      7  CG2 ILE O   1      -8.547  -2.802   7.354  0.00  0.00    +0.000 C 
ATOM      8  CD1 ILE O   1      -5.521  -2.171   6.778  0.00  0.00    +0.000 C 
ATOM      9  H   ILE O   1      -7.192   0.902   8.207  0.00  0.00    +0.000 HD
ATOM     10  H   ILE O   1      -7.253   0.275   9.749  0.00  0.00    +0.000 HD
ATOM     11  H   ILE O   1      -8.429   1.337   9.234  0.00  0.00    +0.000 HD
TER 
REMARK  Name = /data/user_data/xianyang/t3-aimnet-affinity-balanced/L4/Q96PC2/pocket.pdb
REMARK                            x       y       z     vdW  Elec       q    Type
REMARK                         _______ _______ _______ _____ _____    ______ ____
ATOM      1  N   ILE P   1       2.490   1.994   4.910  0.00  0.00    +0.000 N 
ATOM      2  CA  ILE P   1       2.821   1.378   3.635  0.00  0.00    +0.000 C 
ATOM      3  C   ILE P   1       3.623   2.342   2.776  0.00  0.00    +0.000 C 
ATOM      4  O   ILE P   1       3.720   3.535   3.076  0.00  0.00    +0.000 OA
ATOM      5  CB  ILE P   1       1.555   0.915   2.878  0.00  0.00    +0.000 C 
ATOM      6  CG1 ILE P   1       0.621   2.096   2.625  0.00  0.00    +0.000 C 
ATOM      7  CG2 ILE P   1       0.844  -0.195   3.633  0.00  0.00    +0.000 C 
ATOM      8  CD1 ILE P   1      -0.474   1.810   1.624  0.00  0.00    +0.000 C 
ATOM      9  N   ASP P   2       4.178   1.796   1.707  0.00  0.00    +0.000 N 
ATOM     10  CA  ASP P   2       4.863   2.532   0.651  0.00  0.00    +0.000 C 
ATOM     11  C   ASP P   2       6.087   3.264   1.189  0.00  0.00    +0.000 C 
ATOM     12  O   ASP P   2       6.048   4.456   1.482  0.00  0.00    +0.000 OA
ATOM     13  CB  ASP P   2       3.913   3.489  -0.069  0.00  0.00    +0.000 C 
ATOM     14  CG  ASP P   2       4.481   3.982  -1.392  0.00  0.00    +0.000 C 
ATOM     15  OD2 ASP P   2       5.650   3.651  -1.708  0.00  0.00    +0.000 OA
ATOM     16  OD1 ASP P   2       3.761   4.690  -2.118  0.00  0.00    +0.000 OA
ATOM     17  N   PHE P   3       7.182   2.539   1.273  0.00  0.00    +0.000 N 
ATOM     18  CA  PHE P   3       8.440   3.064   1.792  0.00  0.00    +0.000 C 
ATOM     19  C   PHE P   3       9.497   3.195   0.703  0.00  0.00    +0.000 C 
ATOM     20  O   PHE P   3      10.696   3.090   0.973  0.00  0.00    +0.000 OA
ATOM     21  CB  PHE P   3       8.947   2.180   2.932  0.00  0.00    +0.000 C 
ATOM     22  CG  PHE P   3       7.928   1.970   4.010  0.00  0.00    +0.000 A 
ATOM     23  CD2 PHE P   3       7.650   2.978   4.918  0.00  0.00    +0.000 A 
ATOM     24  CD1 PHE P   3       7.240   0.771   4.108  0.00  0.00    +0.000 A 
ATOM     25  CE2 PHE P   3       6.705   2.794   5.912  0.00  0.00    +0.000 A 
ATOM     26  CE1 PHE P   3       6.290   0.579   5.103  0.00  0.00    +0.000 A 
ATOM     27  CZ  PHE P   3       6.025   1.590   6.005  0.00  0.00    +0.000 A 
ATOM     28  H   ILE P   1       3.347   2.286   5.379  0.00  0.00    +0.000 HD
ATOM     29  H   ILE P   1       1.995   1.321   5.495  0.00  0.00    +0.000 HD
ATOM     30  H   ILE P   1       1.896   2.808   4.750  0.00  0.00    +0.000 HD
ATOM     31  H   ASP P   2       4.125   0.817   1.617  0.00  0.00    +0.000 HD
ATOM     32  H   PHE P   3       7.151   1.602   0.973  0.00  0.00    +0.000 HD
TER 
