REMARK  Name = /home/xianyang/aimnet2_score_pipelines/work/L1234-fixed-receptor-eint-20260921/L2/P18825/prepared.pdb
REMARK                            x       y       z     vdW  Elec       q    Type
REMARK                         _______ _______ _______ _____ _____    ______ ____
ATOM      1  CH3 ACE A   1      -0.942  -5.953  54.572  0.00  0.00    +0.000 C 
ATOM      2  C   ACE A   1      -1.060  -5.393  55.996  0.00  0.00    +0.000 C 
ATOM      3  O   ACE A   1      -1.447  -6.126  56.915  0.00  0.00    +0.000 OA
ATOM      4  N   PHE A   2      -0.773  -4.081  56.163  0.00  0.00    +0.000 N 
ATOM      5  H   PHE A   2      -0.407  -3.574  55.374  0.00  0.00    +0.000 HD
ATOM      6  CA  PHE A   2      -0.834  -3.390  57.442  0.00  0.00    +0.000 C 
ATOM      7  C   PHE A   2      -2.243  -3.224  57.936  0.00  0.00    +0.000 C 
ATOM      8  O   PHE A   2      -2.464  -3.467  59.114  0.00  0.00    +0.000 OA
ATOM      9  CB  PHE A   2      -0.074  -2.068  57.394  0.00  0.00    +0.000 C 
ATOM     10  CG  PHE A   2       1.388  -2.303  57.110  0.00  0.00    +0.000 A 
ATOM     11  CD1 PHE A   2       2.239  -2.774  58.106  0.00  0.00    +0.000 A 
ATOM     12  CD2 PHE A   2       1.901  -2.127  55.830  0.00  0.00    +0.000 A 
ATOM     13  CE1 PHE A   2       3.576  -3.050  57.831  0.00  0.00    +0.000 A 
ATOM     14  CE2 PHE A   2       3.244  -2.395  55.557  0.00  0.00    +0.000 A 
ATOM     15  CZ  PHE A   2       4.072  -2.854  56.560  0.00  0.00    +0.000 A 
ATOM     16  N   SER A   3      -3.214  -2.895  57.041  0.00  0.00    +0.000 N 
ATOM     17  H   SER A   3      -2.936  -2.661  56.102  0.00  0.00    +0.000 HD
ATOM     18  CA  SER A   3      -4.652  -2.778  57.375  0.00  0.00    +0.000 C 
ATOM     19  C   SER A   3      -5.144  -4.075  57.992  0.00  0.00    +0.000 C 
ATOM     20  O   SER A   3      -5.831  -4.034  59.009  0.00  0.00    +0.000 OA
ATOM     21  CB  SER A   3      -5.502  -2.468  56.140  0.00  0.00    +0.000 C 
ATOM     22  OG  SER A   3      -5.362  -1.141  55.661  0.00  0.00    +0.000 OA
ATOM     23  HG  SER A   3      -5.271  -0.511  56.405  0.00  0.00    +0.000 HD
ATOM     24  N   LEU A   4      -4.777  -5.226  57.377  0.00  0.00    +0.000 N 
ATOM     25  H   LEU A   4      -4.143  -5.172  56.598  0.00  0.00    +0.000 HD
ATOM     26  CA  LEU A   4      -5.166  -6.544  57.860  0.00  0.00    +0.000 C 
ATOM     27  C   LEU A   4      -4.386  -6.952  59.106  0.00  0.00    +0.000 C 
ATOM     28  O   LEU A   4      -4.984  -7.476  60.050  0.00  0.00    +0.000 OA
ATOM     29  CB  LEU A   4      -5.040  -7.598  56.761  0.00  0.00    +0.000 C 
ATOM     30  CG  LEU A   4      -5.417  -9.004  57.201  0.00  0.00    +0.000 C 
ATOM     31  CD1 LEU A   4      -6.918  -9.154  57.406  0.00  0.00    +0.000 C 
ATOM     32  CD2 LEU A   4      -4.842 -10.037  56.283  0.00  0.00    +0.000 C 
ATOM     33  N   NME A   5      -3.060  -6.734  59.108  0.00  0.00    +0.000 N 
ATOM     34  H   NME A   5      -2.629  -6.315  58.294  0.00  0.00    +0.000 HD
ATOM     35  C   NME A   5      -2.207  -7.068  60.242  0.00  0.00    +0.000 C 
TER 
REMARK  Name = /home/xianyang/aimnet2_score_pipelines/work/L1234-fixed-receptor-eint-20260921/L2/P18825/prepared.pdb
REMARK                            x       y       z     vdW  Elec       q    Type
REMARK                         _______ _______ _______ _____ _____    ______ ____
ATOM      1  CH3 ACE B   1       5.112   3.565  60.279  0.00  0.00    +0.000 C 
ATOM      2  C   ACE B   1       3.600   3.750  60.379  0.00  0.00    +0.000 C 
ATOM      3  O   ACE B   1       2.906   3.596  59.377  0.00  0.00    +0.000 OA
ATOM      4  N   CYS B   2       3.097   4.151  61.559  0.00  0.00    +0.000 N 
ATOM      5  H   CYS B   2       3.709   4.203  62.357  0.00  0.00    +0.000 HD
ATOM      6  CA  CYS B   2       1.671   4.418  61.734  0.00  0.00    +0.000 C 
ATOM      7  C   CYS B   2       1.259   5.657  60.922  0.00  0.00    +0.000 C 
ATOM      8  O   CYS B   2       0.258   5.621  60.202  0.00  0.00    +0.000 OA
ATOM      9  CB  CYS B   2       1.315   4.558  63.210  0.00  0.00    +0.000 C 
ATOM     10  SG  CYS B   2      -0.389   5.090  63.509  0.00  0.00    +0.000 S 
ATOM     11  N   GLY B   3       2.073   6.706  61.019  0.00  0.00    +0.000 N 
ATOM     12  H   GLY B   3       2.840   6.640  61.668  0.00  0.00    +0.000 HD
ATOM     13  CA  GLY B   3       1.895   7.962  60.306  0.00  0.00    +0.000 C 
ATOM     14  C   GLY B   3       2.085   7.819  58.810  0.00  0.00    +0.000 C 
ATOM     15  O   GLY B   3       1.369   8.464  58.047  0.00  0.00    +0.000 OA
ATOM     16  N   VAL B   4       3.042   6.974  58.368  0.00  0.00    +0.000 N 
ATOM     17  H   VAL B   4       3.583   6.457  59.041  0.00  0.00    +0.000 HD
ATOM     18  CA  VAL B   4       3.281   6.743  56.934  0.00  0.00    +0.000 C 
ATOM     19  C   VAL B   4       2.147   5.880  56.364  0.00  0.00    +0.000 C 
ATOM     20  O   VAL B   4       1.586   6.241  55.334  0.00  0.00    +0.000 OA
ATOM     21  CB  VAL B   4       4.695   6.188  56.596  0.00  0.00    +0.000 C 
ATOM     22  CG1 VAL B   4       4.872   6.023  55.090  0.00  0.00    +0.000 C 
ATOM     23  CG2 VAL B   4       5.789   7.090  57.155  0.00  0.00    +0.000 C 
ATOM     24  N   TYR B   5       1.784   4.779  57.059  0.00  0.00    +0.000 N 
ATOM     25  H   TYR B   5       2.285   4.534  57.905  0.00  0.00    +0.000 HD
ATOM     26  CA  TYR B   5       0.693   3.899  56.656  0.00  0.00    +0.000 C 
ATOM     27  C   TYR B   5      -0.610   4.678  56.443  0.00  0.00    +0.000 C 
ATOM     28  O   TYR B   5      -1.243   4.511  55.400  0.00  0.00    +0.000 OA
ATOM     29  CB  TYR B   5       0.508   2.744  57.651  0.00  0.00    +0.000 C 
ATOM     30  CG  TYR B   5      -0.873   2.120  57.646  0.00  0.00    +0.000 A 
ATOM     31  CD1 TYR B   5      -1.241   1.195  56.672  0.00  0.00    +0.000 A 
ATOM     32  CD2 TYR B   5      -1.793   2.414  58.645  0.00  0.00    +0.000 A 
ATOM     33  CE1 TYR B   5      -2.493   0.585  56.690  0.00  0.00    +0.000 A 
ATOM     34  CE2 TYR B   5      -3.055   1.828  58.659  0.00  0.00    +0.000 A 
ATOM     35  CZ  TYR B   5      -3.399   0.913  57.681  0.00  0.00    +0.000 A 
ATOM     36  OH  TYR B   5      -4.651   0.365  57.700  0.00  0.00    +0.000 OA
ATOM     37  HH  TYR B   5      -5.263   0.976  58.117  0.00  0.00    +0.000 HD
ATOM     38  N   LEU B   6      -0.985   5.544  57.410  0.00  0.00    +0.000 N 
ATOM     39  H   LEU B   6      -0.442   5.576  58.265  0.00  0.00    +0.000 HD
ATOM     40  CA  LEU B   6      -2.188   6.376  57.330  0.00  0.00    +0.000 C 
ATOM     41  C   LEU B   6      -2.092   7.454  56.263  0.00  0.00    +0.000 C 
ATOM     42  O   LEU B   6      -3.074   7.673  55.554  0.00  0.00    +0.000 OA
ATOM     43  CB  LEU B   6      -2.556   6.998  58.682  0.00  0.00    +0.000 C 
ATOM     44  CG  LEU B   6      -3.061   6.047  59.761  0.00  0.00    +0.000 C 
ATOM     45  CD1 LEU B   6      -3.328   6.797  61.007  0.00  0.00    +0.000 C 
ATOM     46  CD2 LEU B   6      -4.330   5.320  59.336  0.00  0.00    +0.000 C 
ATOM     47  N   ALA B   7      -0.914   8.099  56.122  0.00  0.00    +0.000 N 
ATOM     48  H   ALA B   7      -0.165   7.881  56.767  0.00  0.00    +0.000 HD
ATOM     49  CA  ALA B   7      -0.662   9.139  55.116  0.00  0.00    +0.000 C 
ATOM     50  C   ALA B   7      -0.795   8.595  53.688  0.00  0.00    +0.000 C 
ATOM     51  O   ALA B   7      -1.463   9.203  52.859  0.00  0.00    +0.000 OA
ATOM     52  CB  ALA B   7       0.719   9.735  55.320  0.00  0.00    +0.000 C 
ATOM     53  N   LEU B   8      -0.188   7.427  53.431  0.00  0.00    +0.000 N 
ATOM     54  H   LEU B   8       0.320   6.991  54.195  0.00  0.00    +0.000 HD
ATOM     55  CA  LEU B   8      -0.192   6.731  52.147  0.00  0.00    +0.000 C 
ATOM     56  C   LEU B   8      -1.581   6.190  51.791  0.00  0.00    +0.000 C 
ATOM     57  O   LEU B   8      -1.995   6.274  50.627  0.00  0.00    +0.000 OA
ATOM     58  CB  LEU B   8       0.812   5.555  52.168  0.00  0.00    +0.000 C 
ATOM     59  CG  LEU B   8       2.304   5.847  52.097  0.00  0.00    +0.000 C 
ATOM     60  CD1 LEU B   8       3.069   4.553  51.909  0.00  0.00    +0.000 C 
ATOM     61  CD2 LEU B   8       2.644   6.828  50.963  0.00  0.00    +0.000 C 
ATOM     62  N   ASP B   9      -2.276   5.592  52.791  0.00  0.00    +0.000 N 
ATOM     63  H   ASP B   9      -1.854   5.508  53.711  0.00  0.00    +0.000 HD
ATOM     64  CA  ASP B   9      -3.593   4.985  52.610  0.00  0.00    +0.000 C 
ATOM     65  C   ASP B   9      -4.621   6.004  52.107  0.00  0.00    +0.000 C 
ATOM     66  O   ASP B   9      -5.407   5.694  51.200  0.00  0.00    +0.000 OA
ATOM     67  CB  ASP B   9      -4.016   4.264  53.891  0.00  0.00    +0.000 C 
ATOM     68  CG  ASP B   9      -5.469   4.383  54.238  0.00  0.00    +0.000 C 
ATOM     69  OD1 ASP B   9      -6.272   3.625  53.669  0.00  0.00    +0.000 OA
ATOM     70  OD2 ASP B   9      -5.799   5.233  55.081  0.00  0.00    +0.000 OA
ATOM     71  N   VAL B  10      -4.543   7.235  52.641  0.00  0.00    +0.000 N 
ATOM     72  H   VAL B  10      -3.949   7.341  53.458  0.00  0.00    +0.000 HD
ATOM     73  CA  VAL B  10      -5.359   8.367  52.222  0.00  0.00    +0.000 C 
ATOM     74  C   VAL B  10      -4.872   8.859  50.823  0.00  0.00    +0.000 C 
ATOM     75  O   VAL B  10      -5.710   9.050  49.934  0.00  0.00    +0.000 OA
ATOM     76  CB  VAL B  10      -5.346   9.492  53.291  0.00  0.00    +0.000 C 
ATOM     77  CG1 VAL B  10      -6.042  10.744  52.790  0.00  0.00    +0.000 C 
ATOM     78  CG2 VAL B  10      -5.972   9.025  54.596  0.00  0.00    +0.000 C 
ATOM     79  N   LEU B  11      -3.529   9.020  50.620  0.00  0.00    +0.000 N 
ATOM     80  H   LEU B  11      -2.906   8.803  51.394  0.00  0.00    +0.000 HD
ATOM     81  CA  LEU B  11      -2.937   9.492  49.356  0.00  0.00    +0.000 C 
ATOM     82  C   LEU B  11      -3.252   8.606  48.158  0.00  0.00    +0.000 C 
ATOM     83  O   LEU B  11      -3.580   9.142  47.105  0.00  0.00    +0.000 OA
ATOM     84  CB  LEU B  11      -1.418   9.736  49.471  0.00  0.00    +0.000 C 
ATOM     85  CG  LEU B  11      -0.666  10.211  48.196  0.00  0.00    +0.000 C 
ATOM     86  CD1 LEU B  11      -0.717  11.722  48.038  0.00  0.00    +0.000 C 
ATOM     87  CD2 LEU B  11       0.768   9.719  48.200  0.00  0.00    +0.000 C 
ATOM     88  N   PHE B  12      -3.161   7.279  48.297  0.00  0.00    +0.000 N 
ATOM     89  H   PHE B  12      -2.847   6.884  49.181  0.00  0.00    +0.000 HD
ATOM     90  CA  PHE B  12      -3.456   6.384  47.180  0.00  0.00    +0.000 C 
ATOM     91  C   PHE B  12      -4.947   6.379  46.805  0.00  0.00    +0.000 C 
ATOM     92  O   PHE B  12      -5.282   6.153  45.635  0.00  0.00    +0.000 OA
ATOM     93  CB  PHE B  12      -2.907   4.966  47.416  0.00  0.00    +0.000 C 
ATOM     94  CG  PHE B  12      -1.409   4.869  47.631  0.00  0.00    +0.000 A 
ATOM     95  CD1 PHE B  12      -0.525   5.629  46.867  0.00  0.00    +0.000 A 
ATOM     96  CD2 PHE B  12      -0.881   4.005  48.584  0.00  0.00    +0.000 A 
ATOM     97  CE1 PHE B  12       0.855   5.559  47.088  0.00  0.00    +0.000 A 
ATOM     98  CE2 PHE B  12       0.501   3.944  48.812  0.00  0.00    +0.000 A 
ATOM     99  CZ  PHE B  12       1.357   4.729  48.071  0.00  0.00    +0.000 A 
ATOM    100  N   CYS B  13      -5.833   6.676  47.776  0.00  0.00    +0.000 N 
ATOM    101  H   CYS B  13      -5.497   6.804  48.723  0.00  0.00    +0.000 HD
ATOM    102  CA  CYS B  13      -7.280   6.764  47.536  0.00  0.00    +0.000 C 
ATOM    103  C   CYS B  13      -7.635   8.077  46.818  0.00  0.00    +0.000 C 
ATOM    104  O   CYS B  13      -8.527   8.097  45.965  0.00  0.00    +0.000 OA
ATOM    105  CB  CYS B  13      -8.071   6.598  48.833  0.00  0.00    +0.000 C 
ATOM    106  SG  CYS B  13      -9.868   6.755  48.629  0.00  0.00    +0.000 S 
ATOM    107  HG  CYS B  13     -10.195   6.367  49.869  0.00  0.00    +0.000 HD
ATOM    108  N   THR B  14      -6.941   9.171  47.185  0.00  0.00    +0.000 N 
ATOM    109  H   THR B  14      -6.357   9.095  48.010  0.00  0.00    +0.000 HD
ATOM    110  CA  THR B  14      -7.144  10.501  46.604  0.00  0.00    +0.000 C 
ATOM    111  C   THR B  14      -6.526  10.579  45.228  0.00  0.00    +0.000 C 
ATOM    112  O   THR B  14      -7.169  11.118  44.324  0.00  0.00    +0.000 OA
ATOM    113  CB  THR B  14      -6.625  11.591  47.540  0.00  0.00    +0.000 C 
ATOM    114  OG1 THR B  14      -7.070  11.294  48.867  0.00  0.00    +0.000 OA
ATOM    115  HG1 THR B  14      -6.290  11.148  49.418  0.00  0.00    +0.000 HD
ATOM    116  CG2 THR B  14      -7.068  12.978  47.116  0.00  0.00    +0.000 C 
ATOM    117  N   SER B  15      -5.296  10.021  45.055  0.00  0.00    +0.000 N 
ATOM    118  H   SER B  15      -4.823   9.618  45.855  0.00  0.00    +0.000 HD
ATOM    119  CA  SER B  15      -4.624  10.006  43.761  0.00  0.00    +0.000 C 
ATOM    120  C   SER B  15      -5.440   9.251  42.708  0.00  0.00    +0.000 C 
ATOM    121  O   SER B  15      -5.399   9.649  41.546  0.00  0.00    +0.000 OA
ATOM    122  CB  SER B  15      -3.188   9.506  43.863  0.00  0.00    +0.000 C 
ATOM    123  OG  SER B  15      -3.112   8.097  43.984  0.00  0.00    +0.000 OA
ATOM    124  HG  SER B  15      -3.797   7.787  44.587  0.00  0.00    +0.000 HD
ATOM    125  N   NME B  16      -6.231   8.219  43.128  0.00  0.00    +0.000 N 
ATOM    126  H   NME B  16      -6.238   7.995  44.112  0.00  0.00    +0.000 HD
ATOM    127  C   NME B  16      -7.146   7.458  42.258  0.00  0.00    +0.000 C 
ATOM    128  CH3 ACE D   1      -0.703   1.390  70.907  0.00  0.00    +0.000 C 
ATOM    129  C   ACE D   1      -1.663   1.183  69.742  0.00  0.00    +0.000 C 
ATOM    130  O   ACE D   1      -1.673   0.122  69.115  0.00  0.00    +0.000 OA
ATOM    131  N   GLN D   2      -2.486   2.188  69.463  0.00  0.00    +0.000 N 
ATOM    132  H   GLN D   2      -2.367   3.070  69.933  0.00  0.00    +0.000 HD
ATOM    133  CA  GLN D   2      -3.417   2.104  68.346  0.00  0.00    +0.000 C 
ATOM    134  C   GLN D   2      -2.929   2.997  67.199  0.00  0.00    +0.000 C 
ATOM    135  O   GLN D   2      -1.976   3.758  67.389  0.00  0.00    +0.000 OA
ATOM    136  CB  GLN D   2      -4.858   2.438  68.785  0.00  0.00    +0.000 C 
ATOM    137  CG  GLN D   2      -5.547   1.350  69.618  0.00  0.00    +0.000 C 
ATOM    138  CD  GLN D   2      -5.650  -0.010  68.951  0.00  0.00    +0.000 C 
ATOM    139  OE1 GLN D   2      -5.886  -0.145  67.738  0.00  0.00    +0.000 OA
ATOM    140  NE2 GLN D   2      -5.495  -1.057  69.747  0.00  0.00    +0.000 N 
ATOM    141 HE21 GLN D   2      -5.528  -1.957  69.301  0.00  0.00    +0.000 HD
ATOM    142 HE22 GLN D   2      -5.271  -0.945  70.717  0.00  0.00    +0.000 HD
ATOM    143  N   CYS D   3      -3.555   2.886  66.015  0.00  0.00    +0.000 N 
ATOM    144  H   CYS D   3      -4.297   2.207  65.921  0.00  0.00    +0.000 HD
ATOM    145  CA  CYS D   3      -3.173   3.663  64.835  0.00  0.00    +0.000 C 
ATOM    146  C   CYS D   3      -4.403   4.279  64.173  0.00  0.00    +0.000 C 
ATOM    147  O   CYS D   3      -4.802   3.911  63.065  0.00  0.00    +0.000 OA
ATOM    148  CB  CYS D   3      -2.367   2.807  63.859  0.00  0.00    +0.000 C 
ATOM    149  SG  CYS D   3      -1.566   3.742  62.529  0.00  0.00    +0.000 S 
ATOM    150  N   GLY D   4      -5.013   5.211  64.876  0.00  0.00    +0.000 N 
ATOM    151  H   GLY D   4      -4.601   5.533  65.737  0.00  0.00    +0.000 HD
ATOM    152  CA  GLY D   4      -6.213   5.861  64.369  0.00  0.00    +0.000 C 
ATOM    153  C   GLY D   4      -5.951   7.071  63.500  0.00  0.00    +0.000 C 
ATOM    154  O   GLY D   4      -4.868   7.663  63.551  0.00  0.00    +0.000 OA
ATOM    155  N   LEU D   5      -6.973   7.466  62.733  0.00  0.00    +0.000 N 
ATOM    156  H   LEU D   5      -7.845   6.968  62.807  0.00  0.00    +0.000 HD
ATOM    157  CA  LEU D   5      -6.954   8.639  61.867  0.00  0.00    +0.000 C 
ATOM    158  C   LEU D   5      -7.658   9.785  62.592  0.00  0.00    +0.000 C 
ATOM    159  O   LEU D   5      -8.519   9.537  63.434  0.00  0.00    +0.000 OA
ATOM    160  CB  LEU D   5      -7.670   8.303  60.546  0.00  0.00    +0.000 C 
ATOM    161  CG  LEU D   5      -7.293   9.108  59.306  0.00  0.00    +0.000 C 
ATOM    162  CD1 LEU D   5      -5.869   8.814  58.864  0.00  0.00    +0.000 C 
ATOM    163  CD2 LEU D   5      -8.239   8.792  58.173  0.00  0.00    +0.000 C 
ATOM    164  N   ASN D   6      -7.286  11.032  62.276  0.00  0.00    +0.000 N 
ATOM    165  H   ASN D   6      -6.614  11.144  61.535  0.00  0.00    +0.000 HD
ATOM    166  CA  ASN D   6      -7.841  12.247  62.882  0.00  0.00    +0.000 C 
ATOM    167  C   ASN D   6      -9.376  12.221  62.940  0.00  0.00    +0.000 C 
ATOM    168  O   ASN D   6     -10.062  12.064  61.931  0.00  0.00    +0.000 OA
ATOM    169  CB  ASN D   6      -7.293  13.503  62.203  0.00  0.00    +0.000 C 
ATOM    170  CG  ASN D   6      -7.632  14.776  62.929  0.00  0.00    +0.000 C 
ATOM    171  OD1 ASN D   6      -8.707  15.349  62.737  0.00  0.00    +0.000 OA
ATOM    172  ND2 ASN D   6      -6.717  15.253  63.766  0.00  0.00    +0.000 N 
ATOM    173 HD21 ASN D   6      -5.838  14.783  63.879  0.00  0.00    +0.000 HD
ATOM    174 HD22 ASN D   6      -6.952  16.117  64.223  0.00  0.00    +0.000 HD
ATOM    175  N   NME D   7      -9.880  12.301  64.165  0.00  0.00    +0.000 N 
ATOM    176  H   NME D   7      -9.214  12.361  64.917  0.00  0.00    +0.000 HD
ATOM    177  C   NME D   7     -11.279  12.203  64.560  0.00  0.00    +0.000 C 
TER 
REMARK  Name = /home/xianyang/aimnet2_score_pipelines/work/L1234-fixed-receptor-eint-20260921/L2/P18825/prepared.pdb
REMARK                            x       y       z     vdW  Elec       q    Type
REMARK                         _______ _______ _______ _____ _____    ______ ____
ATOM      1  CH3 ACE C   1      -2.509  18.971  48.799  0.00  0.00    +0.000 C 
ATOM      2  C   ACE C   1      -3.932  18.687  49.308  0.00  0.00    +0.000 C 
ATOM      3  O   ACE C   1      -4.492  19.471  50.067  0.00  0.00    +0.000 OA
ATOM      4  N   ILE C   2      -4.489  17.548  48.926  0.00  0.00    +0.000 N 
ATOM      5  H   ILE C   2      -3.984  16.974  48.273  0.00  0.00    +0.000 HD
ATOM      6  CA  ILE C   2      -5.804  17.120  49.374  0.00  0.00    +0.000 C 
ATOM      7  C   ILE C   2      -5.636  16.173  50.572  0.00  0.00    +0.000 C 
ATOM      8  O   ILE C   2      -6.205  16.437  51.630  0.00  0.00    +0.000 OA
ATOM      9  CB  ILE C   2      -6.633  16.497  48.223  0.00  0.00    +0.000 C 
ATOM     10  CG1 ILE C   2      -6.819  17.503  47.062  0.00  0.00    +0.000 C 
ATOM     11  CG2 ILE C   2      -7.988  16.012  48.755  0.00  0.00    +0.000 C 
ATOM     12  CD1 ILE C   2      -7.352  16.926  45.777  0.00  0.00    +0.000 C 
ATOM     13  N   SER C   3      -4.861  15.075  50.395  0.00  0.00    +0.000 N 
ATOM     14  H   SER C   3      -4.514  14.893  49.468  0.00  0.00    +0.000 HD
ATOM     15  CA  SER C   3      -4.578  14.061  51.412  0.00  0.00    +0.000 C 
ATOM     16  C   SER C   3      -4.028  14.679  52.670  0.00  0.00    +0.000 C 
ATOM     17  O   SER C   3      -4.593  14.453  53.738  0.00  0.00    +0.000 OA
ATOM     18  CB  SER C   3      -3.597  13.019  50.885  0.00  0.00    +0.000 C 
ATOM     19  OG  SER C   3      -4.115  12.398  49.724  0.00  0.00    +0.000 OA
ATOM     20  HG  SER C   3      -3.500  11.697  49.496  0.00  0.00    +0.000 HD
ATOM     21  N   PHE C   4      -2.957  15.490  52.540  0.00  0.00    +0.000 N 
ATOM     22  H   PHE C   4      -2.615  15.687  51.614  0.00  0.00    +0.000 HD
ATOM     23  CA  PHE C   4      -2.304  16.188  53.654  0.00  0.00    +0.000 C 
ATOM     24  C   PHE C   4      -2.759  17.651  53.682  0.00  0.00    +0.000 C 
ATOM     25  O   PHE C   4      -2.377  18.453  52.824  0.00  0.00    +0.000 OA
ATOM     26  CB  PHE C   4      -0.772  16.009  53.629  0.00  0.00    +0.000 C 
ATOM     27  CG  PHE C   4      -0.348  14.652  53.115  0.00  0.00    +0.000 A 
ATOM     28  CD1 PHE C   4      -0.834  13.485  53.695  0.00  0.00    +0.000 A 
ATOM     29  CD2 PHE C   4       0.506  14.541  52.026  0.00  0.00    +0.000 A 
ATOM     30  CE1 PHE C   4      -0.496  12.237  53.181  0.00  0.00    +0.000 A 
ATOM     31  CE2 PHE C   4       0.869  13.286  51.529  0.00  0.00    +0.000 A 
ATOM     32  CZ  PHE C   4       0.366  12.141  52.114  0.00  0.00    +0.000 A 
ATOM     33  N   NME C   5      -3.671  17.968  54.626  0.00  0.00    +0.000 N 
ATOM     34  H   NME C   5      -4.038  17.241  55.221  0.00  0.00    +0.000 HD
ATOM     35  C   NME C   5      -4.262  19.309  54.678  0.00  0.00    +0.000 C 
TER 
REMARK  Name = /home/xianyang/aimnet2_score_pipelines/work/L1234-fixed-receptor-eint-20260921/L2/P18825/prepared.pdb
REMARK                            x       y       z     vdW  Elec       q    Type
REMARK                         _______ _______ _______ _____ _____    ______ ____
ATOM      1  CH3 ACE E   1     -15.551  16.581  62.891  0.00  0.00    +0.000 C 
ATOM      2  C   ACE E   1     -15.309  17.281  61.545  0.00  0.00    +0.000 C 
ATOM      3  O   ACE E   1     -15.899  16.884  60.541  0.00  0.00    +0.000 OA
ATOM      4  N   TRP E   2     -14.446  18.294  61.512  0.00  0.00    +0.000 N 
ATOM      5  H   TRP E   2     -14.047  18.637  62.371  0.00  0.00    +0.000 HD
ATOM      6  CA  TRP E   2     -14.230  19.018  60.277  0.00  0.00    +0.000 C 
ATOM      7  C   TRP E   2     -13.181  18.397  59.395  0.00  0.00    +0.000 C 
ATOM      8  O   TRP E   2     -13.303  18.551  58.182  0.00  0.00    +0.000 OA
ATOM      9  CB  TRP E   2     -13.986  20.501  60.534  0.00  0.00    +0.000 C 
ATOM     10  CG  TRP E   2     -15.280  21.187  60.890  0.00  0.00    +0.000 A 
ATOM     11  CD1 TRP E   2     -15.676  21.601  62.131  0.00  0.00    +0.000 A 
ATOM     12  CD2 TRP E   2     -16.421  21.355  60.028  0.00  0.00    +0.000 A 
ATOM     13  NE1 TRP E   2     -16.956  22.109  62.074  0.00  0.00    +0.000 N 
ATOM     14  HE1 TRP E   2     -17.456  22.507  62.856  0.00  0.00    +0.000 HD
ATOM     15  CE2 TRP E   2     -17.441  21.957  60.797  0.00  0.00    +0.000 A 
ATOM     16  CE3 TRP E   2     -16.671  21.074  58.670  0.00  0.00    +0.000 A 
ATOM     17  CZ2 TRP E   2     -18.682  22.305  60.248  0.00  0.00    +0.000 A 
ATOM     18  CZ3 TRP E   2     -17.897  21.422  58.129  0.00  0.00    +0.000 A 
ATOM     19  CH2 TRP E   2     -18.885  22.031  58.913  0.00  0.00    +0.000 A 
ATOM     20  N   TYR E   3     -12.210  17.641  59.952  0.00  0.00    +0.000 N 
ATOM     21  H   TYR E   3     -12.145  17.560  60.954  0.00  0.00    +0.000 HD
ATOM     22  CA  TYR E   3     -11.243  16.947  59.105  0.00  0.00    +0.000 C 
ATOM     23  C   TYR E   3     -11.977  15.799  58.377  0.00  0.00    +0.000 C 
ATOM     24  O   TYR E   3     -11.741  15.598  57.180  0.00  0.00    +0.000 OA
ATOM     25  CB  TYR E   3     -10.021  16.411  59.881  0.00  0.00    +0.000 C 
ATOM     26  CG  TYR E   3      -9.364  15.248  59.159  0.00  0.00    +0.000 A 
ATOM     27  CD1 TYR E   3      -8.504  15.465  58.083  0.00  0.00    +0.000 A 
ATOM     28  CD2 TYR E   3      -9.712  13.933  59.455  0.00  0.00    +0.000 A 
ATOM     29  CE1 TYR E   3      -7.952  14.404  57.372  0.00  0.00    +0.000 A 
ATOM     30  CE2 TYR E   3      -9.174  12.867  58.747  0.00  0.00    +0.000 A 
ATOM     31  CZ  TYR E   3      -8.301  13.105  57.698  0.00  0.00    +0.000 A 
ATOM     32  OH  TYR E   3      -7.795  12.045  56.983  0.00  0.00    +0.000 OA
ATOM     33  HH  TYR E   3      -7.383  12.338  56.169  0.00  0.00    +0.000 HD
ATOM     34  N   ILE E   4     -12.843  15.042  59.109  0.00  0.00    +0.000 N 
ATOM     35  H   ILE E   4     -12.931  15.246  60.091  0.00  0.00    +0.000 HD
ATOM     36  CA  ILE E   4     -13.637  13.938  58.570  0.00  0.00    +0.000 C 
ATOM     37  C   ILE E   4     -14.410  14.425  57.338  0.00  0.00    +0.000 C 
ATOM     38  O   ILE E   4     -14.213  13.877  56.249  0.00  0.00    +0.000 OA
ATOM     39  CB  ILE E   4     -14.586  13.310  59.657  0.00  0.00    +0.000 C 
ATOM     40  CG1 ILE E   4     -13.790  12.510  60.733  0.00  0.00    +0.000 C 
ATOM     41  CG2 ILE E   4     -15.704  12.442  59.029  0.00  0.00    +0.000 C 
ATOM     42  CD1 ILE E   4     -14.610  11.979  61.913  0.00  0.00    +0.000 C 
ATOM     43  N   LEU E   5     -15.242  15.491  57.509  0.00  0.00    +0.000 N 
ATOM     44  H   LEU E   5     -15.344  15.857  58.448  0.00  0.00    +0.000 HD
ATOM     45  CA  LEU E   5     -16.127  16.047  56.475  0.00  0.00    +0.000 C 
ATOM     46  C   LEU E   5     -15.405  16.759  55.328  0.00  0.00    +0.000 C 
ATOM     47  O   LEU E   5     -15.864  16.664  54.184  0.00  0.00    +0.000 OA
ATOM     48  CB  LEU E   5     -17.211  16.954  57.074  0.00  0.00    +0.000 C 
ATOM     49  CG  LEU E   5     -18.060  16.350  58.194  0.00  0.00    +0.000 C 
ATOM     50  CD1 LEU E   5     -18.825  17.425  58.939  0.00  0.00    +0.000 C 
ATOM     51  CD2 LEU E   5     -18.966  15.211  57.692  0.00  0.00    +0.000 C 
ATOM     52  N   SER E   6     -14.295  17.461  55.600  0.00  0.00    +0.000 N 
ATOM     53  H   SER E   6     -13.951  17.538  56.549  0.00  0.00    +0.000 HD
ATOM     54  CA  SER E   6     -13.578  18.111  54.506  0.00  0.00    +0.000 C 
ATOM     55  C   SER E   6     -12.852  17.057  53.656  0.00  0.00    +0.000 C 
ATOM     56  O   SER E   6     -12.876  17.153  52.432  0.00  0.00    +0.000 OA
ATOM     57  CB  SER E   6     -12.620  19.170  55.029  0.00  0.00    +0.000 C 
ATOM     58  OG  SER E   6     -11.711  18.603  55.952  0.00  0.00    +0.000 OA
ATOM     59  HG  SER E   6     -12.110  18.720  56.829  0.00  0.00    +0.000 HD
ATOM     60  N   SER E   7     -12.289  16.008  54.313  0.00  0.00    +0.000 N 
ATOM     61  H   SER E   7     -12.269  16.049  55.327  0.00  0.00    +0.000 HD
ATOM     62  CA  SER E   7     -11.568  14.896  53.668  0.00  0.00    +0.000 C 
ATOM     63  C   SER E   7     -12.458  14.006  52.760  0.00  0.00    +0.000 C 
ATOM     64  O   SER E   7     -11.978  13.497  51.746  0.00  0.00    +0.000 OA
ATOM     65  CB  SER E   7     -10.818  14.056  54.701  0.00  0.00    +0.000 C 
ATOM     66  OG  SER E   7     -11.678  13.301  55.539  0.00  0.00    +0.000 OA
ATOM     67  HG  SER E   7     -12.095  13.922  56.161  0.00  0.00    +0.000 HD
ATOM     68  N   CYS E   8     -13.745  13.844  53.112  0.00  0.00    +0.000 N 
ATOM     69  H   CYS E   8     -14.029  14.169  54.028  0.00  0.00    +0.000 HD
ATOM     70  CA  CYS E   8     -14.685  13.068  52.312  0.00  0.00    +0.000 C 
ATOM     71  C   CYS E   8     -15.049  13.847  51.074  0.00  0.00    +0.000 C 
ATOM     72  O   CYS E   8     -15.157  13.269  50.000  0.00  0.00    +0.000 OA
ATOM     73  CB  CYS E   8     -15.919  12.695  53.127  0.00  0.00    +0.000 C 
ATOM     74  SG  CYS E   8     -15.610  11.455  54.412  0.00  0.00    +0.000 S 
ATOM     75  HG  CYS E   8     -14.928  12.264  55.245  0.00  0.00    +0.000 HD
ATOM     76  N   ILE E   9     -15.202  15.173  51.215  0.00  0.00    +0.000 N 
ATOM     77  H   ILE E   9     -15.098  15.581  52.137  0.00  0.00    +0.000 HD
ATOM     78  CA  ILE E   9     -15.503  16.062  50.085  0.00  0.00    +0.000 C 
ATOM     79  C   ILE E   9     -14.288  16.166  49.153  0.00  0.00    +0.000 C 
ATOM     80  O   ILE E   9     -14.440  15.972  47.956  0.00  0.00    +0.000 OA
ATOM     81  CB  ILE E   9     -16.078  17.444  50.513  0.00  0.00    +0.000 C 
ATOM     82  CG1 ILE E   9     -17.414  17.269  51.280  0.00  0.00    +0.000 C 
ATOM     83  CG2 ILE E   9     -16.267  18.351  49.284  0.00  0.00    +0.000 C 
ATOM     84  CD1 ILE E   9     -17.790  18.445  52.219  0.00  0.00    +0.000 C 
ATOM     85  N   GLY E  10     -13.108  16.399  49.715  0.00  0.00    +0.000 N 
ATOM     86  H   GLY E  10     -13.073  16.560  50.716  0.00  0.00    +0.000 HD
ATOM     87  CA  GLY E  10     -11.864  16.493  48.962  0.00  0.00    +0.000 C 
ATOM     88  C   GLY E  10     -11.458  15.237  48.203  0.00  0.00    +0.000 C 
ATOM     89  O   GLY E  10     -11.128  15.312  47.014  0.00  0.00    +0.000 OA
ATOM     90  N   SER E  11     -11.470  14.072  48.873  0.00  0.00    +0.000 N 
ATOM     91  H   SER E  11     -11.663  14.061  49.868  0.00  0.00    +0.000 HD
ATOM     92  CA  SER E  11     -11.054  12.815  48.237  0.00  0.00    +0.000 C 
ATOM     93  C   SER E  11     -12.153  12.013  47.546  0.00  0.00    +0.000 C 
ATOM     94  O   SER E  11     -11.809  11.144  46.743  0.00  0.00    +0.000 OA
ATOM     95  CB  SER E  11     -10.332  11.918  49.226  0.00  0.00    +0.000 C 
ATOM     96  OG  SER E  11      -9.192  12.600  49.704  0.00  0.00    +0.000 OA
ATOM     97  HG  SER E  11      -8.415  12.199  49.273  0.00  0.00    +0.000 HD
ATOM     98  N   PHE E  12     -13.446  12.261  47.843  0.00  0.00    +0.000 N 
ATOM     99  H   PHE E  12     -13.699  12.960  48.528  0.00  0.00    +0.000 HD
ATOM    100  CA  PHE E  12     -14.473  11.456  47.206  0.00  0.00    +0.000 C 
ATOM    101  C   PHE E  12     -15.544  12.255  46.492  0.00  0.00    +0.000 C 
ATOM    102  O   PHE E  12     -15.618  12.144  45.278  0.00  0.00    +0.000 OA
ATOM    103  CB  PHE E  12     -15.102  10.441  48.173  0.00  0.00    +0.000 C 
ATOM    104  CG  PHE E  12     -16.115   9.518  47.527  0.00  0.00    +0.000 A 
ATOM    105  CD1 PHE E  12     -15.704   8.402  46.800  0.00  0.00    +0.000 A 
ATOM    106  CD2 PHE E  12     -17.480   9.765  47.640  0.00  0.00    +0.000 A 
ATOM    107  CE1 PHE E  12     -16.644   7.551  46.198  0.00  0.00    +0.000 A 
ATOM    108  CE2 PHE E  12     -18.418   8.913  47.036  0.00  0.00    +0.000 A 
ATOM    109  CZ  PHE E  12     -17.992   7.817  46.316  0.00  0.00    +0.000 A 
ATOM    110  N   PHE E  13     -16.391  13.007  47.210  0.00  0.00    +0.000 N 
ATOM    111  H   PHE E  13     -16.240  13.057  48.210  0.00  0.00    +0.000 HD
ATOM    112  CA  PHE E  13     -17.539  13.714  46.626  0.00  0.00    +0.000 C 
ATOM    113  C   PHE E  13     -17.199  14.787  45.570  0.00  0.00    +0.000 C 
ATOM    114  O   PHE E  13     -17.906  14.838  44.563  0.00  0.00    +0.000 OA
ATOM    115  CB  PHE E  13     -18.447  14.295  47.719  0.00  0.00    +0.000 C 
ATOM    116  CG  PHE E  13     -18.940  13.239  48.687  0.00  0.00    +0.000 A 
ATOM    117  CD1 PHE E  13     -19.839  12.255  48.275  0.00  0.00    +0.000 A 
ATOM    118  CD2 PHE E  13     -18.499  13.223  50.007  0.00  0.00    +0.000 A 
ATOM    119  CE1 PHE E  13     -20.283  11.271  49.165  0.00  0.00    +0.000 A 
ATOM    120  CE2 PHE E  13     -18.962  12.253  50.903  0.00  0.00    +0.000 A 
ATOM    121  CZ  PHE E  13     -19.841  11.276  50.474  0.00  0.00    +0.000 A 
ATOM    122  N   NME E  14     -16.151  15.628  45.776  0.00  0.00    +0.000 N 
ATOM    123  H   NME E  14     -15.575  15.506  46.602  0.00  0.00    +0.000 HD
ATOM    124  C   NME E  14     -15.749  16.649  44.792  0.00  0.00    +0.000 C 
TER 
REMARK  Name = /home/xianyang/aimnet2_score_pipelines/work/L1234-fixed-receptor-eint-20260921/L2/P18825/prepared.pdb
REMARK                            x       y       z     vdW  Elec       q    Type
REMARK                         _______ _______ _______ _____ _____    ______ ____
ATOM      1  CH3 ACE F   1     -19.476   1.979  43.687  0.00  0.00    +0.000 C 
ATOM      2  C   ACE F   1     -18.672   1.297  44.769  0.00  0.00    +0.000 C 
ATOM      3  O   ACE F   1     -19.231   0.865  45.773  0.00  0.00    +0.000 OA
ATOM      4  N   CYS F   2     -17.368   1.200  44.570  0.00  0.00    +0.000 N 
ATOM      5  H   CYS F   2     -17.003   1.456  43.667  0.00  0.00    +0.000 HD
ATOM      6  CA  CYS F   2     -16.459   0.592  45.529  0.00  0.00    +0.000 C 
ATOM      7  C   CYS F   2     -16.213   1.461  46.756  0.00  0.00    +0.000 C 
ATOM      8  O   CYS F   2     -16.138   0.928  47.877  0.00  0.00    +0.000 OA
ATOM      9  CB  CYS F   2     -15.151   0.200  44.851  0.00  0.00    +0.000 C 
ATOM     10  SG  CYS F   2     -15.305  -1.206  43.722  0.00  0.00    +0.000 S 
ATOM     11  HG  CYS F   2     -14.682  -2.094  44.512  0.00  0.00    +0.000 HD
ATOM     12  N   TRP F   3     -16.069   2.792  46.548  0.00  0.00    +0.000 N 
ATOM     13  H   TRP F   3     -16.078   3.140  45.604  0.00  0.00    +0.000 HD
ATOM     14  CA  TRP F   3     -15.791   3.714  47.642  0.00  0.00    +0.000 C 
ATOM     15  C   TRP F   3     -17.008   4.395  48.226  0.00  0.00    +0.000 C 
ATOM     16  O   TRP F   3     -16.887   4.963  49.312  0.00  0.00    +0.000 OA
ATOM     17  CB  TRP F   3     -14.741   4.748  47.246  0.00  0.00    +0.000 C 
ATOM     18  CG  TRP F   3     -13.368   4.169  47.170  0.00  0.00    +0.000 A 
ATOM     19  CD1 TRP F   3     -12.677   3.829  46.040  0.00  0.00    +0.000 A 
ATOM     20  CD2 TRP F   3     -12.537   3.801  48.281  0.00  0.00    +0.000 A 
ATOM     21  NE1 TRP F   3     -11.455   3.296  46.376  0.00  0.00    +0.000 N 
ATOM     22  HE1 TRP F   3     -10.764   2.956  45.722  0.00  0.00    +0.000 HD
ATOM     23  CE2 TRP F   3     -11.348   3.253  47.750  0.00  0.00    +0.000 A 
ATOM     24  CE3 TRP F   3     -12.692   3.860  49.680  0.00  0.00    +0.000 A 
ATOM     25  CZ2 TRP F   3     -10.297   2.804  48.575  0.00  0.00    +0.000 A 
ATOM     26  CZ3 TRP F   3     -11.674   3.365  50.488  0.00  0.00    +0.000 A 
ATOM     27  CH2 TRP F   3     -10.496   2.842  49.936  0.00  0.00    +0.000 A 
ATOM     28  N   PHE F   4     -18.166   4.348  47.557  0.00  0.00    +0.000 N 
ATOM     29  H   PHE F   4     -18.224   3.814  46.706  0.00  0.00    +0.000 HD
ATOM     30  CA  PHE F   4     -19.366   4.992  48.081  0.00  0.00    +0.000 C 
ATOM     31  C   PHE F   4     -19.755   4.447  49.470  0.00  0.00    +0.000 C 
ATOM     32  O   PHE F   4     -19.951   5.289  50.366  0.00  0.00    +0.000 OA
ATOM     33  CB  PHE F   4     -20.568   4.984  47.096  0.00  0.00    +0.000 C 
ATOM     34  CG  PHE F   4     -21.775   5.747  47.620  0.00  0.00    +0.000 A 
ATOM     35  CD1 PHE F   4     -21.912   7.114  47.387  0.00  0.00    +0.000 A 
ATOM     36  CD2 PHE F   4     -22.760   5.102  48.369  0.00  0.00    +0.000 A 
ATOM     37  CE1 PHE F   4     -23.009   7.823  47.904  0.00  0.00    +0.000 A 
ATOM     38  CE2 PHE F   4     -23.839   5.813  48.900  0.00  0.00    +0.000 A 
ATOM     39  CZ  PHE F   4     -23.958   7.169  48.663  0.00  0.00    +0.000 A 
ATOM     40  N   PRO F   5     -19.857   3.099  49.703  0.00  0.00    +0.000 N 
ATOM     41  CA  PRO F   5     -20.253   2.624  51.038  0.00  0.00    +0.000 C 
ATOM     42  C   PRO F   5     -19.439   3.224  52.181  0.00  0.00    +0.000 C 
ATOM     43  O   PRO F   5     -20.050   3.802  53.068  0.00  0.00    +0.000 OA
ATOM     44  CB  PRO F   5     -20.128   1.111  50.928  0.00  0.00    +0.000 C 
ATOM     45  CG  PRO F   5     -20.365   0.842  49.493  0.00  0.00    +0.000 C 
ATOM     46  CD  PRO F   5     -19.681   1.961  48.782  0.00  0.00    +0.000 C 
ATOM     47  N   PHE F   6     -18.090   3.182  52.119  0.00  0.00    +0.000 N 
ATOM     48  H   PHE F   6     -17.666   2.723  51.326  0.00  0.00    +0.000 HD
ATOM     49  CA  PHE F   6     -17.203   3.760  53.135  0.00  0.00    +0.000 C 
ATOM     50  C   PHE F   6     -17.318   5.262  53.237  0.00  0.00    +0.000 C 
ATOM     51  O   PHE F   6     -17.474   5.772  54.337  0.00  0.00    +0.000 OA
ATOM     52  CB  PHE F   6     -15.729   3.382  52.897  0.00  0.00    +0.000 C 
ATOM     53  CG  PHE F   6     -14.740   4.182  53.721  0.00  0.00    +0.000 A 
ATOM     54  CD1 PHE F   6     -14.433   3.809  55.029  0.00  0.00    +0.000 A 
ATOM     55  CD2 PHE F   6     -14.092   5.289  53.180  0.00  0.00    +0.000 A 
ATOM     56  CE1 PHE F   6     -13.514   4.541  55.788  0.00  0.00    +0.000 A 
ATOM     57  CE2 PHE F   6     -13.177   6.023  53.939  0.00  0.00    +0.000 A 
ATOM     58  CZ  PHE F   6     -12.897   5.648  55.243  0.00  0.00    +0.000 A 
ATOM     59  N   PHE F   7     -17.181   5.981  52.114  0.00  0.00    +0.000 N 
ATOM     60  H   PHE F   7     -17.063   5.509  51.223  0.00  0.00    +0.000 HD
ATOM     61  CA  PHE F   7     -17.196   7.446  52.132  0.00  0.00    +0.000 C 
ATOM     62  C   PHE F   7     -18.525   8.060  52.602  0.00  0.00    +0.000 C 
ATOM     63  O   PHE F   7     -18.500   9.130  53.193  0.00  0.00    +0.000 OA
ATOM     64  CB  PHE F   7     -16.745   8.024  50.791  0.00  0.00    +0.000 C 
ATOM     65  CG  PHE F   7     -15.239   8.120  50.748  0.00  0.00    +0.000 A 
ATOM     66  CD1 PHE F   7     -14.562   9.065  51.513  0.00  0.00    +0.000 A 
ATOM     67  CD2 PHE F   7     -14.492   7.252  49.964  0.00  0.00    +0.000 A 
ATOM     68  CE1 PHE F   7     -13.171   9.141  51.485  0.00  0.00    +0.000 A 
ATOM     69  CE2 PHE F   7     -13.094   7.348  49.924  0.00  0.00    +0.000 A 
ATOM     70  CZ  PHE F   7     -12.445   8.285  50.690  0.00  0.00    +0.000 A 
ATOM     71  N   PHE F   8     -19.657   7.371  52.376  0.00  0.00    +0.000 N 
ATOM     72  H   PHE F   8     -19.601   6.531  51.807  0.00  0.00    +0.000 HD
ATOM     73  CA  PHE F   8     -20.975   7.783  52.832  0.00  0.00    +0.000 C 
ATOM     74  C   PHE F   8     -21.026   7.482  54.337  0.00  0.00    +0.000 C 
ATOM     75  O   PHE F   8     -21.474   8.336  55.104  0.00  0.00    +0.000 OA
ATOM     76  CB  PHE F   8     -22.076   7.041  52.031  0.00  0.00    +0.000 C 
ATOM     77  CG  PHE F   8     -23.494   7.281  52.489  0.00  0.00    +0.000 A 
ATOM     78  CD1 PHE F   8     -24.218   8.369  52.020  0.00  0.00    +0.000 A 
ATOM     79  CD2 PHE F   8     -24.104   6.423  53.397  0.00  0.00    +0.000 A 
ATOM     80  CE1 PHE F   8     -25.523   8.608  52.466  0.00  0.00    +0.000 A 
ATOM     81  CE2 PHE F   8     -25.413   6.655  53.837  0.00  0.00    +0.000 A 
ATOM     82  CZ  PHE F   8     -26.115   7.746  53.367  0.00  0.00    +0.000 A 
ATOM     83  N   SER F   9     -20.498   6.297  54.761  0.00  0.00    +0.000 N 
ATOM     84  H   SER F   9     -20.145   5.665  54.052  0.00  0.00    +0.000 HD
ATOM     85  CA  SER F   9     -20.444   5.838  56.163  0.00  0.00    +0.000 C 
ATOM     86  C   SER F   9     -19.600   6.738  57.029  0.00  0.00    +0.000 C 
ATOM     87  O   SER F   9     -20.037   7.096  58.114  0.00  0.00    +0.000 OA
ATOM     88  CB  SER F   9     -19.913   4.415  56.264  0.00  0.00    +0.000 C 
ATOM     89  OG  SER F   9     -20.958   3.484  56.077  0.00  0.00    +0.000 OA
ATOM     90  HG  SER F   9     -21.164   3.463  55.135  0.00  0.00    +0.000 HD
ATOM     91  N   TYR F  10     -18.399   7.086  56.556  0.00  0.00    +0.000 N 
ATOM     92  H   TYR F  10     -18.124   6.698  55.663  0.00  0.00    +0.000 HD
ATOM     93  CA  TYR F  10     -17.444   7.976  57.207  0.00  0.00    +0.000 C 
ATOM     94  C   TYR F  10     -18.071   9.380  57.398  0.00  0.00    +0.000 C 
ATOM     95  O   TYR F  10     -17.994   9.924  58.510  0.00  0.00    +0.000 OA
ATOM     96  CB  TYR F  10     -16.158   8.046  56.358  0.00  0.00    +0.000 C 
ATOM     97  CG  TYR F  10     -14.947   8.691  57.001  0.00  0.00    +0.000 A 
ATOM     98  CD1 TYR F  10     -14.641   8.466  58.341  0.00  0.00    +0.000 A 
ATOM     99  CD2 TYR F  10     -14.029   9.408  56.236  0.00  0.00    +0.000 A 
ATOM    100  CE1 TYR F  10     -13.497   9.005  58.923  0.00  0.00    +0.000 A 
ATOM    101  CE2 TYR F  10     -12.893   9.973  56.812  0.00  0.00    +0.000 A 
ATOM    102  CZ  TYR F  10     -12.618   9.751  58.154  0.00  0.00    +0.000 A 
ATOM    103  OH  TYR F  10     -11.487  10.275  58.742  0.00  0.00    +0.000 OA
ATOM    104  HH  TYR F  10     -10.992  10.808  58.118  0.00  0.00    +0.000 HD
ATOM    105  N   SER F  11     -18.758   9.914  56.335  0.00  0.00    +0.000 N 
ATOM    106  H   SER F  11     -18.817   9.354  55.500  0.00  0.00    +0.000 HD
ATOM    107  CA  SER F  11     -19.451  11.213  56.314  0.00  0.00    +0.000 C 
ATOM    108  C   SER F  11     -20.567  11.249  57.315  0.00  0.00    +0.000 C 
ATOM    109  O   SER F  11     -20.626  12.183  58.123  0.00  0.00    +0.000 OA
ATOM    110  CB  SER F  11     -20.022  11.516  54.935  0.00  0.00    +0.000 C 
ATOM    111  OG  SER F  11     -18.958  11.646  54.013  0.00  0.00    +0.000 OA
ATOM    112  HG  SER F  11     -18.658  10.762  53.758  0.00  0.00    +0.000 HD
ATOM    113  N   NME F  12     -21.454  10.238  57.271  0.00  0.00    +0.000 N 
ATOM    114  H   NME F  12     -21.330   9.498  56.587  0.00  0.00    +0.000 HD
ATOM    115  C   NME F  12     -22.552  10.134  58.217  0.00  0.00    +0.000 C 
TER 
REMARK  Name = /home/xianyang/aimnet2_score_pipelines/work/L1234-fixed-receptor-eint-20260921/L2/P18825/prepared.pdb
REMARK                            x       y       z     vdW  Elec       q    Type
REMARK                         _______ _______ _______ _____ _____    ______ ____
ATOM      1  CH3 ACE G   1     -17.600  -4.836  61.125  0.00  0.00    +0.000 C 
ATOM      2  C   ACE G   1     -17.950  -4.375  59.713  0.00  0.00    +0.000 C 
ATOM      3  O   ACE G   1     -17.171  -4.594  58.779  0.00  0.00    +0.000 OA
ATOM      4  N   LEU G   2     -19.123  -3.758  59.550  0.00  0.00    +0.000 N 
ATOM      5  H   LEU G   2     -19.754  -3.687  60.333  0.00  0.00    +0.000 HD
ATOM      6  CA  LEU G   2     -19.576  -3.319  58.244  0.00  0.00    +0.000 C 
ATOM      7  C   LEU G   2     -18.771  -2.135  57.730  0.00  0.00    +0.000 C 
ATOM      8  O   LEU G   2     -18.436  -2.110  56.558  0.00  0.00    +0.000 OA
ATOM      9  CB  LEU G   2     -21.079  -3.060  58.264  0.00  0.00    +0.000 C 
ATOM     10  CG  LEU G   2     -21.731  -2.866  56.939  0.00  0.00    +0.000 C 
ATOM     11  CD1 LEU G   2     -21.473  -4.047  56.030  0.00  0.00    +0.000 C 
ATOM     12  CD2 LEU G   2     -23.186  -2.532  57.101  0.00  0.00    +0.000 C 
ATOM     13  N   PHE G   3     -18.401  -1.204  58.598  0.00  0.00    +0.000 N 
ATOM     14  H   PHE G   3     -18.761  -1.259  59.537  0.00  0.00    +0.000 HD
ATOM     15  CA  PHE G   3     -17.554  -0.079  58.237  0.00  0.00    +0.000 C 
ATOM     16  C   PHE G   3     -16.168  -0.593  57.738  0.00  0.00    +0.000 C 
ATOM     17  O   PHE G   3     -15.692  -0.131  56.704  0.00  0.00    +0.000 OA
ATOM     18  CB  PHE G   3     -17.407   0.840  59.446  0.00  0.00    +0.000 C 
ATOM     19  CG  PHE G   3     -16.678   2.125  59.162  0.00  0.00    +0.000 A 
ATOM     20  CD1 PHE G   3     -17.336   3.205  58.584  0.00  0.00    +0.000 A 
ATOM     21  CD2 PHE G   3     -15.341   2.277  59.511  0.00  0.00    +0.000 A 
ATOM     22  CE1 PHE G   3     -16.669   4.411  58.360  0.00  0.00    +0.000 A 
ATOM     23  CE2 PHE G   3     -14.665   3.476  59.252  0.00  0.00    +0.000 A 
ATOM     24  CZ  PHE G   3     -15.340   4.541  58.705  0.00  0.00    +0.000 A 
ATOM     25  N   LYS G   4     -15.559  -1.575  58.449  0.00  0.00    +0.000 N 
ATOM     26  H   LYS G   4     -16.065  -1.928  59.244  0.00  0.00    +0.000 HD
ATOM     27  CA  LYS G   4     -14.279  -2.229  58.109  0.00  0.00    +0.000 C 
ATOM     28  C   LYS G   4     -14.343  -2.954  56.745  0.00  0.00    +0.000 C 
ATOM     29  O   LYS G   4     -13.360  -2.936  56.017  0.00  0.00    +0.000 OA
ATOM     30  CB  LYS G   4     -13.872  -3.248  59.194  0.00  0.00    +0.000 C 
ATOM     31  CG  LYS G   4     -13.512  -2.646  60.547  0.00  0.00    +0.000 C 
ATOM     32  CD  LYS G   4     -13.610  -3.721  61.613  0.00  0.00    +0.000 C 
ATOM     33  CE  LYS G   4     -13.148  -3.275  62.981  0.00  0.00    +0.000 C 
ATOM     34  NZ  LYS G   4     -13.192  -4.396  63.963  0.00  0.00    +0.000 N 
ATOM     35  HZ1 LYS G   4     -12.581  -5.149  63.667  0.00  0.00    +0.000 HD
ATOM     36  HZ2 LYS G   4     -12.879  -4.081  64.875  0.00  0.00    +0.000 HD
ATOM     37  HZ3 LYS G   4     -14.131  -4.761  64.058  0.00  0.00    +0.000 HD
ATOM     38  N   PHE G   5     -15.477  -3.619  56.418  0.00  0.00    +0.000 N 
ATOM     39  H   PHE G   5     -16.218  -3.666  57.106  0.00  0.00    +0.000 HD
ATOM     40  CA  PHE G   5     -15.678  -4.324  55.149  0.00  0.00    +0.000 C 
ATOM     41  C   PHE G   5     -15.726  -3.296  54.047  0.00  0.00    +0.000 C 
ATOM     42  O   PHE G   5     -15.071  -3.484  53.021  0.00  0.00    +0.000 OA
ATOM     43  CB  PHE G   5     -16.983  -5.148  55.169  0.00  0.00    +0.000 C 
ATOM     44  CG  PHE G   5     -17.362  -5.840  53.874  0.00  0.00    +0.000 A 
ATOM     45  CD1 PHE G   5     -16.658  -6.952  53.426  0.00  0.00    +0.000 A 
ATOM     46  CD2 PHE G   5     -18.432  -5.386  53.110  0.00  0.00    +0.000 A 
ATOM     47  CE1 PHE G   5     -17.018  -7.598  52.240  0.00  0.00    +0.000 A 
ATOM     48  CE2 PHE G   5     -18.796  -6.034  51.927  0.00  0.00    +0.000 A 
ATOM     49  CZ  PHE G   5     -18.082  -7.134  51.497  0.00  0.00    +0.000 A 
ATOM     50  N   PHE G   6     -16.473  -2.189  54.264  0.00  0.00    +0.000 N 
ATOM     51  H   PHE G   6     -17.009  -2.132  55.125  0.00  0.00    +0.000 HD
ATOM     52  CA  PHE G   6     -16.615  -1.086  53.319  0.00  0.00    +0.000 C 
ATOM     53  C   PHE G   6     -15.292  -0.545  52.777  0.00  0.00    +0.000 C 
ATOM     54  O   PHE G   6     -15.222  -0.255  51.585  0.00  0.00    +0.000 OA
ATOM     55  CB  PHE G   6     -17.458   0.038  53.920  0.00  0.00    +0.000 C 
ATOM     56  CG  PHE G   6     -18.925  -0.302  53.984  0.00  0.00    +0.000 A 
ATOM     57  CD1 PHE G   6     -19.428  -1.439  53.335  0.00  0.00    +0.000 A 
ATOM     58  CD2 PHE G   6     -19.814   0.520  54.669  0.00  0.00    +0.000 A 
ATOM     59  CE1 PHE G   6     -20.793  -1.745  53.375  0.00  0.00    +0.000 A 
ATOM     60  CE2 PHE G   6     -21.179   0.213  54.711  0.00  0.00    +0.000 A 
ATOM     61  CZ  PHE G   6     -21.664  -0.910  54.051  0.00  0.00    +0.000 A 
ATOM     62  N   PHE G   7     -14.245  -0.414  53.614  0.00  0.00    +0.000 N 
ATOM     63  H   PHE G   7     -14.330  -0.605  54.605  0.00  0.00    +0.000 HD
ATOM     64  CA  PHE G   7     -12.996   0.070  53.040  0.00  0.00    +0.000 C 
ATOM     65  C   PHE G   7     -12.223  -1.050  52.382  0.00  0.00    +0.000 C 
ATOM     66  O   PHE G   7     -11.423  -0.763  51.492  0.00  0.00    +0.000 OA
ATOM     67  CB  PHE G   7     -12.131   0.927  53.973  0.00  0.00    +0.000 C 
ATOM     68  CG  PHE G   7     -11.731   0.434  55.330  0.00  0.00    +0.000 A 
ATOM     69  CD1 PHE G   7     -10.690  -0.478  55.477  0.00  0.00    +0.000 A 
ATOM     70  CD2 PHE G   7     -12.301   0.980  56.478  0.00  0.00    +0.000 A 
ATOM     71  CE1 PHE G   7     -10.288  -0.905  56.747  0.00  0.00    +0.000 A 
ATOM     72  CE2 PHE G   7     -11.896   0.558  57.752  0.00  0.00    +0.000 A 
ATOM     73  CZ  PHE G   7     -10.894  -0.384  57.875  0.00  0.00    +0.000 A 
ATOM     74  N   TRP G   8     -12.531  -2.325  52.721  0.00  0.00    +0.000 N 
ATOM     75  H   TRP G   8     -13.207  -2.493  53.454  0.00  0.00    +0.000 HD
ATOM     76  CA  TRP G   8     -11.939  -3.482  52.043  0.00  0.00    +0.000 C 
ATOM     77  C   TRP G   8     -12.563  -3.655  50.685  0.00  0.00    +0.000 C 
ATOM     78  O   TRP G   8     -11.844  -4.043  49.775  0.00  0.00    +0.000 OA
ATOM     79  CB  TRP G   8     -12.001  -4.746  52.880  0.00  0.00    +0.000 C 
ATOM     80  CG  TRP G   8     -10.866  -4.815  53.855  0.00  0.00    +0.000 A 
ATOM     81  CD1 TRP G   8     -10.893  -4.476  55.177  0.00  0.00    +0.000 A 
ATOM     82  CD2 TRP G   8      -9.503  -5.178  53.562  0.00  0.00    +0.000 A 
ATOM     83  NE1 TRP G   8      -9.641  -4.635  55.734  0.00  0.00    +0.000 N 
ATOM     84  HE1 TRP G   8      -9.424  -4.490  56.709  0.00  0.00    +0.000 HD
ATOM     85  CE2 TRP G   8      -8.768  -5.060  54.762  0.00  0.00    +0.000 A 
ATOM     86  CE3 TRP G   8      -8.832  -5.585  52.391  0.00  0.00    +0.000 A 
ATOM     87  CZ2 TRP G   8      -7.403  -5.363  54.839  0.00  0.00    +0.000 A 
ATOM     88  CZ3 TRP G   8      -7.486  -5.909  52.475  0.00  0.00    +0.000 A 
ATOM     89  CH2 TRP G   8      -6.786  -5.800  53.688  0.00  0.00    +0.000 A 
ATOM     90  N   ILE G   9     -13.848  -3.239  50.493  0.00  0.00    +0.000 N 
ATOM     91  H   ILE G   9     -14.399  -3.003  51.312  0.00  0.00    +0.000 HD
ATOM     92  CA  ILE G   9     -14.473  -3.184  49.156  0.00  0.00    +0.000 C 
ATOM     93  C   ILE G   9     -13.664  -2.143  48.371  0.00  0.00    +0.000 C 
ATOM     94  O   ILE G   9     -13.428  -2.313  47.169  0.00  0.00    +0.000 OA
ATOM     95  CB  ILE G   9     -15.953  -2.724  49.160  0.00  0.00    +0.000 C 
ATOM     96  CG1 ILE G   9     -16.886  -3.649  49.930  0.00  0.00    +0.000 C 
ATOM     97  CG2 ILE G   9     -16.467  -2.511  47.739  0.00  0.00    +0.000 C 
ATOM     98  CD1 ILE G   9     -18.308  -2.926  50.179  0.00  0.00    +0.000 C 
ATOM     99  N   GLY G  10     -13.270  -1.064  49.071  0.00  0.00    +0.000 N 
ATOM    100  H   GLY G  10     -13.591  -0.980  50.026  0.00  0.00    +0.000 HD
ATOM    101  CA  GLY G  10     -12.465   0.025  48.529  0.00  0.00    +0.000 C 
ATOM    102  C   GLY G  10     -11.115  -0.445  48.022  0.00  0.00    +0.000 C 
ATOM    103  O   GLY G  10     -10.713  -0.085  46.908  0.00  0.00    +0.000 OA
ATOM    104  N   TYR G  11     -10.415  -1.264  48.845  0.00  0.00    +0.000 N 
ATOM    105  H   TYR G  11     -10.781  -1.392  49.783  0.00  0.00    +0.000 HD
ATOM    106  CA  TYR G  11      -9.119  -1.882  48.532  0.00  0.00    +0.000 C 
ATOM    107  C   TYR G  11      -9.240  -2.913  47.403  0.00  0.00    +0.000 C 
ATOM    108  O   TYR G  11      -8.258  -3.124  46.691  0.00  0.00    +0.000 OA
ATOM    109  CB  TYR G  11      -8.495  -2.568  49.766  0.00  0.00    +0.000 C 
ATOM    110  CG  TYR G  11      -7.963  -1.667  50.864  0.00  0.00    +0.000 A 
ATOM    111  CD1 TYR G  11      -7.507  -0.380  50.581  0.00  0.00    +0.000 A 
ATOM    112  CD2 TYR G  11      -7.835  -2.130  52.171  0.00  0.00    +0.000 A 
ATOM    113  CE1 TYR G  11      -6.991   0.440  51.588  0.00  0.00    +0.000 A 
ATOM    114  CE2 TYR G  11      -7.315  -1.322  53.183  0.00  0.00    +0.000 A 
ATOM    115  CZ  TYR G  11      -6.892  -0.039  52.887  0.00  0.00    +0.000 A 
ATOM    116  OH  TYR G  11      -6.349   0.740  53.871  0.00  0.00    +0.000 OA
ATOM    117  HH  TYR G  11      -6.386   1.700  53.688  0.00  0.00    +0.000 HD
ATOM    118  N   CYS G  12     -10.427  -3.563  47.254  0.00  0.00    +0.000 N 
ATOM    119  H   CYS G  12     -11.149  -3.397  47.944  0.00  0.00    +0.000 HD
ATOM    120  CA  CYS G  12     -10.697  -4.549  46.195  0.00  0.00    +0.000 C 
ATOM    121  C   CYS G  12     -10.712  -3.915  44.849  0.00  0.00    +0.000 C 
ATOM    122  O   CYS G  12     -10.388  -4.594  43.883  0.00  0.00    +0.000 OA
ATOM    123  CB  CYS G  12     -11.981  -5.329  46.442  0.00  0.00    +0.000 C 
ATOM    124  SG  CYS G  12     -11.835  -6.595  47.723  0.00  0.00    +0.000 S 
ATOM    125  HG  CYS G  12     -11.704  -5.724  48.739  0.00  0.00    +0.000 HD
ATOM    126  N   NME G  13     -11.074  -2.612  44.772  0.00  0.00    +0.000 N 
ATOM    127  H   NME G  13     -11.305  -2.135  45.634  0.00  0.00    +0.000 HD
ATOM    128  C   NME G  13     -11.110  -1.842  43.519  0.00  0.00    +0.000 C 
TER 
