REMARK  Name = /data/user_data/xianyang/t3-aimnet-affinity-balanced/L4/P42226/pocket.pdb
REMARK                            x       y       z     vdW  Elec       q    Type
REMARK                         _______ _______ _______ _____ _____    ______ ____
ATOM      1  N   ARG A   1       3.786 -40.875  -9.212  0.00  0.00    +0.000 N 
ATOM      2  CA  ARG A   1       3.310 -39.848 -10.130  0.00  0.00    +0.000 C 
ATOM      3  C   ARG A   1       3.740 -38.457  -9.668  0.00  0.00    +0.000 C 
ATOM      4  O   ARG A   1       4.292 -38.319  -8.583  0.00  0.00    +0.000 OA
ATOM      5  CB  ARG A   1       1.785 -39.953 -10.252  0.00  0.00    +0.000 C 
ATOM      6  CG  ARG A   1       1.324 -41.357 -10.607  0.00  0.00    +0.000 C 
ATOM      7  CD  ARG A   1       1.695 -41.725 -12.040  0.00  0.00    +0.000 C 
ATOM      8  NE  ARG A   1       2.004 -43.147 -12.212  0.00  0.00    +0.000 N 
ATOM      9  CZ  ARG A   1       1.093 -44.114 -12.286  0.00  0.00    +0.000 C 
ATOM     10  NH2 ARG A   1      -0.199 -43.831 -12.164  0.00  0.00    +0.000 N 
ATOM     11  NH1 ARG A   1       1.469 -45.376 -12.442  0.00  0.00    +0.000 N 
ATOM     12  H   ARG A   1       3.486 -41.792  -9.543  0.00  0.00    +0.000 HD
ATOM     13  H   ARG A   1       3.400 -40.706  -8.283  0.00  0.00    +0.000 HD
ATOM     14  H   ARG A   1       4.805 -40.846  -9.168  0.00  0.00    +0.000 HD
ATOM     15  H   ARG A   1       2.952 -43.405 -12.277  0.00  0.00    +0.000 HD
ATOM     16  H   ARG A   1      -0.868 -44.551 -12.220  0.00  0.00    +0.000 HD
ATOM     17  H   ARG A   1      -0.488 -42.901 -12.018  0.00  0.00    +0.000 HD
ATOM     18  H   ARG A   1       2.424 -45.597 -12.533  0.00  0.00    +0.000 HD
ATOM     19  H   ARG A   1       0.793 -46.092 -12.466  0.00  0.00    +0.000 HD
TER 
REMARK  Name = /data/user_data/xianyang/t3-aimnet-affinity-balanced/L4/P42226/pocket.pdb
REMARK                            x       y       z     vdW  Elec       q    Type
REMARK                         _______ _______ _______ _____ _____    ______ ____
ATOM      1  N   LYS B   1      -5.195 -52.271 -14.631  0.00  0.00    +0.000 N 
ATOM      2  CA  LYS B   1      -4.507 -53.161 -15.569  0.00  0.00    +0.000 C 
ATOM      3  C   LYS B   1      -4.736 -54.657 -15.218  0.00  0.00    +0.000 C 
ATOM      4  O   LYS B   1      -4.701 -55.512 -16.104  0.00  0.00    +0.000 OA
ATOM      5  CB  LYS B   1      -3.010 -52.850 -15.618  0.00  0.00    +0.000 C 
ATOM      6  CG  LYS B   1      -2.676 -51.664 -16.491  0.00  0.00    +0.000 C 
ATOM      7  CD  LYS B   1      -1.185 -51.595 -16.751  0.00  0.00    +0.000 C 
ATOM      8  CE  LYS B   1      -0.699 -50.184 -16.963  0.00  0.00    +0.000 C 
ATOM      9  NZ  LYS B   1      -0.805 -49.371 -15.715  0.00  0.00    +0.000 N 
ATOM     10  H   LYS B   1      -5.021 -51.301 -14.893  0.00  0.00    +0.000 HD
ATOM     11  H   LYS B   1      -4.845 -52.436 -13.687  0.00  0.00    +0.000 HD
ATOM     12  H   LYS B   1      -6.198 -52.457 -14.659  0.00  0.00    +0.000 HD
ATOM     13  H   LYS B   1      -1.782 -49.319 -15.425  0.00  0.00    +0.000 HD
ATOM     14  H   LYS B   1      -0.452 -48.430 -15.891  0.00  0.00    +0.000 HD
ATOM     15  H   LYS B   1      -0.254 -49.808 -14.977  0.00  0.00    +0.000 HD
TER 
REMARK  Name = /data/user_data/xianyang/t3-aimnet-affinity-balanced/L4/P42226/pocket.pdb
REMARK                            x       y       z     vdW  Elec       q    Type
REMARK                         _______ _______ _______ _____ _____    ______ ____
ATOM      1  N   ARG C   1      -9.345 -47.236 -22.134  0.00  0.00    +0.000 N 
ATOM      2  CA  ARG C   1      -9.188 -46.841 -20.736  0.00  0.00    +0.000 C 
ATOM      3  C   ARG C   1      -8.380 -45.550 -20.551  0.00  0.00    +0.000 C 
ATOM      4  O   ARG C   1      -7.807 -45.021 -21.508  0.00  0.00    +0.000 OA
ATOM      5  CB  ARG C   1      -8.595 -47.989 -19.921  0.00  0.00    +0.000 C 
ATOM      6  CG  ARG C   1      -7.293 -48.510 -20.474  0.00  0.00    +0.000 C 
ATOM      7  CD  ARG C   1      -6.585 -49.343 -19.434  0.00  0.00    +0.000 C 
ATOM      8  NE  ARG C   1      -5.484 -48.603 -18.827  0.00  0.00    +0.000 N 
ATOM      9  CZ  ARG C   1      -4.208 -48.960 -18.905  0.00  0.00    +0.000 C 
ATOM     10  NH1 ARG C   1      -3.859 -50.074 -19.539  0.00  0.00    +0.000 N 
ATOM     11  NH2 ARG C   1      -3.272 -48.224 -18.323  0.00  0.00    +0.000 N 
ATOM     12  N   PHE C   2      -8.356 -45.029 -19.325  0.00  0.00    +0.000 N 
ATOM     13  CA  PHE C   2      -7.656 -43.792 -19.043  0.00  0.00    +0.000 C 
ATOM     14  C   PHE C   2      -6.229 -44.013 -18.625  0.00  0.00    +0.000 C 
ATOM     15  O   PHE C   2      -5.944 -44.907 -17.827  0.00  0.00    +0.000 OA
ATOM     16  CB  PHE C   2      -8.424 -42.945 -18.020  0.00  0.00    +0.000 C 
ATOM     17  CG  PHE C   2      -9.658 -42.328 -18.630  0.00  0.00    +0.000 A 
ATOM     18  CD1 PHE C   2      -9.557 -41.450 -19.696  0.00  0.00    +0.000 A 
ATOM     19  CD2 PHE C   2     -10.916 -42.642 -18.153  0.00  0.00    +0.000 A 
ATOM     20  CE1 PHE C   2     -10.691 -40.915 -20.281  0.00  0.00    +0.000 A 
ATOM     21  CE2 PHE C   2     -12.048 -42.113 -18.744  0.00  0.00    +0.000 A 
ATOM     22  CZ  PHE C   2     -11.929 -41.250 -19.804  0.00  0.00    +0.000 A 
ATOM     23  N   SER C   3      -5.330 -43.193 -19.174  0.00  0.00    +0.000 N 
ATOM     24  CA  SER C   3      -3.907 -43.210 -18.886  0.00  0.00    +0.000 C 
ATOM     25  C   SER C   3      -3.688 -42.904 -17.421  0.00  0.00    +0.000 C 
ATOM     26  O   SER C   3      -4.327 -42.009 -16.880  0.00  0.00    +0.000 OA
ATOM     27  CB  SER C   3      -3.193 -42.166 -19.737  0.00  0.00    +0.000 C 
ATOM     28  OG  SER C   3      -1.876 -41.915 -19.270  0.00  0.00    +0.000 OA
ATOM     29  N   ASP C   4      -2.787 -43.637 -16.784  0.00  0.00    +0.000 N 
ATOM     30  CA  ASP C   4      -2.508 -43.441 -15.369  0.00  0.00    +0.000 C 
ATOM     31  C   ASP C   4      -1.401 -42.418 -15.161  0.00  0.00    +0.000 C 
ATOM     32  O   ASP C   4      -1.562 -41.477 -14.390  0.00  0.00    +0.000 OA
ATOM     33  CB  ASP C   4      -2.115 -44.777 -14.718  0.00  0.00    +0.000 C 
ATOM     34  CG  ASP C   4      -3.266 -45.589 -14.200  0.00  0.00    +0.000 C 
ATOM     35  OD1 ASP C   4      -4.418 -45.327 -14.627  0.00  0.00    +0.000 OA
ATOM     36  OD2 ASP C   4      -3.020 -46.492 -13.371  0.00  0.00    +0.000 OA
ATOM     37  N   SER C   5      -0.273 -42.620 -15.843  0.00  0.00    +0.000 N 
ATOM     38  CA  SER C   5       0.919 -41.807 -15.722  0.00  0.00    +0.000 C 
ATOM     39  C   SER C   5       0.772 -40.447 -16.353  0.00  0.00    +0.000 C 
ATOM     40  O   SER C   5       1.371 -39.492 -15.865  0.00  0.00    +0.000 OA
ATOM     41  CB  SER C   5       2.108 -42.542 -16.327  0.00  0.00    +0.000 C 
ATOM     42  OG  SER C   5       1.803 -43.051 -17.617  0.00  0.00    +0.000 OA
ATOM     43  N   GLU C   6       0.014 -40.348 -17.443  0.00  0.00    +0.000 N 
ATOM     44  CA  GLU C   6      -0.153 -39.069 -18.120  0.00  0.00    +0.000 C 
ATOM     45  C   GLU C   6      -1.480 -38.428 -17.730  0.00  0.00    +0.000 C 
ATOM     46  O   GLU C   6      -2.486 -39.122 -17.623  0.00  0.00    +0.000 OA
ATOM     47  CB  GLU C   6      -0.008 -39.241 -19.636  0.00  0.00    +0.000 C 
ATOM     48  CG  GLU C   6       1.273 -39.972 -20.016  0.00  0.00    +0.000 C 
ATOM     49  CD  GLU C   6       1.510 -40.176 -21.500  0.00  0.00    +0.000 C 
ATOM     50  OE1 GLU C   6       0.648 -39.754 -22.306  0.00  0.00    +0.000 OA
ATOM     51  OE2 GLU C   6       2.562 -40.755 -21.858  0.00  0.00    +0.000 OA
ATOM     52  H   ARG C   1      -9.741 -46.460 -22.664  0.00  0.00    +0.000 HD
ATOM     53  H   ARG C   1      -9.969 -48.041 -22.192  0.00  0.00    +0.000 HD
ATOM     54  H   ARG C   1      -8.434 -47.483 -22.522  0.00  0.00    +0.000 HD
ATOM     55  H   ARG C   1      -5.702 -47.784 -18.326  0.00  0.00    +0.000 HD
ATOM     56  H   ARG C   1      -4.546 -50.628 -19.975  0.00  0.00    +0.000 HD
ATOM     57  H   ARG C   1      -2.913 -50.345 -19.573  0.00  0.00    +0.000 HD
ATOM     58  H   ARG C   1      -2.327 -48.492 -18.383  0.00  0.00    +0.000 HD
ATOM     59  H   ARG C   1      -3.522 -47.409 -17.830  0.00  0.00    +0.000 HD
ATOM     60  H   PHE C   2      -8.824 -45.495 -18.595  0.00  0.00    +0.000 HD
ATOM     61  H   SER C   3      -5.656 -42.527 -19.822  0.00  0.00    +0.000 HD
ATOM     62  H   SER C   3      -1.355 -42.732 -19.317  0.00  0.00    +0.000 HD
ATOM     63  H   ASP C   4      -2.294 -44.331 -17.279  0.00  0.00    +0.000 HD
ATOM     64  H   SER C   5      -0.249 -43.376 -16.474  0.00  0.00    +0.000 HD
ATOM     65  H   SER C   5       1.578 -42.317 -18.209  0.00  0.00    +0.000 HD
ATOM     66  H   GLU C   6      -0.439 -41.148 -17.795  0.00  0.00    +0.000 HD
TER 
REMARK  Name = /data/user_data/xianyang/t3-aimnet-affinity-balanced/L4/P42226/pocket.pdb
REMARK                            x       y       z     vdW  Elec       q    Type
REMARK                         _______ _______ _______ _____ _____    ______ ____
ATOM      1  N   THR D   1      -5.726 -44.491 -23.615  0.00  0.00    +0.000 N 
ATOM      2  CA  THR D   1      -4.919 -45.562 -24.197  0.00  0.00    +0.000 C 
ATOM      3  C   THR D   1      -5.803 -46.674 -24.770  0.00  0.00    +0.000 C 
ATOM      4  O   THR D   1      -6.876 -46.958 -24.226  0.00  0.00    +0.000 OA
ATOM      5  CB  THR D   1      -3.908 -46.099 -23.135  0.00  0.00    +0.000 C 
ATOM      6  OG1 THR D   1      -3.291 -47.312 -23.582  0.00  0.00    +0.000 OA
ATOM      7  CG2 THR D   1      -4.547 -46.356 -21.776  0.00  0.00    +0.000 C 
ATOM      8  H   THR D   1      -6.384 -44.144 -24.313  0.00  0.00    +0.000 HD
ATOM      9  H   THR D   1      -5.116 -43.730 -23.315  0.00  0.00    +0.000 HD
ATOM     10  H   THR D   1      -6.241 -44.851 -22.811  0.00  0.00    +0.000 HD
ATOM     11  H   THR D   1      -3.967 -48.001 -23.681  0.00  0.00    +0.000 HD
TER 
REMARK  Name = /data/user_data/xianyang/t3-aimnet-affinity-balanced/L4/P42226/pocket.pdb
REMARK                            x       y       z     vdW  Elec       q    Type
REMARK                         _______ _______ _______ _____ _____    ______ ____
ATOM      1  N   HIS E   1      -5.196 -53.572 -25.896  0.00  0.00    +0.000 N 
ATOM      2  CA  HIS E   1      -5.688 -54.635 -26.775  0.00  0.00    +0.000 C 
ATOM      3  C   HIS E   1      -4.898 -55.920 -26.644  0.00  0.00    +0.000 C 
ATOM      4  O   HIS E   1      -3.794 -55.901 -26.114  0.00  0.00    +0.000 OA
ATOM      5  CB  HIS E   1      -5.802 -54.176 -28.232  0.00  0.00    +0.000 C 
ATOM      6  CG  HIS E   1      -4.516 -54.126 -28.974  0.00  0.00    +0.000 A 
ATOM      7  ND1 HIS E   1      -3.678 -53.038 -28.881  0.00  0.00    +0.000 N 
ATOM      8  CD2 HIS E   1      -3.993 -55.018 -29.845  0.00  0.00    +0.000 A 
ATOM      9  CE1 HIS E   1      -2.658 -53.310 -29.672  0.00  0.00    +0.000 A 
ATOM     10  NE2 HIS E   1      -2.802 -54.498 -30.266  0.00  0.00    +0.000 NA
ATOM     11  H   HIS E   1      -5.763 -52.734 -26.026  0.00  0.00    +0.000 HD
ATOM     12  H   HIS E   1      -4.224 -53.364 -26.125  0.00  0.00    +0.000 HD
ATOM     13  H   HIS E   1      -5.259 -53.878 -24.925  0.00  0.00    +0.000 HD
ATOM     14  H   HIS E   1      -3.812 -52.227 -28.338  0.00  0.00    +0.000 HD
TER 
REMARK  Name = /data/user_data/xianyang/t3-aimnet-affinity-balanced/L4/P42226/pocket.pdb
REMARK                            x       y       z     vdW  Elec       q    Type
REMARK                         _______ _______ _______ _____ _____    ______ ____
ATOM      1  N   GLU F   1      -1.159 -55.447 -25.015  0.00  0.00    +0.000 N 
ATOM      2  CA  GLU F   1      -0.410 -54.340 -25.588  0.00  0.00    +0.000 C 
ATOM      3  C   GLU F   1      -1.216 -53.078 -25.354  0.00  0.00    +0.000 C 
ATOM      4  O   GLU F   1      -2.432 -53.096 -25.533  0.00  0.00    +0.000 OA
ATOM      5  CB  GLU F   1      -0.158 -54.544 -27.099  0.00  0.00    +0.000 C 
ATOM      6  CG  GLU F   1       0.384 -53.294 -27.776  0.00  0.00    +0.000 C 
ATOM      7  CD  GLU F   1       1.093 -53.448 -29.103  0.00  0.00    +0.000 C 
ATOM      8  OE2 GLU F   1       1.962 -54.342 -29.218  0.00  0.00    +0.000 OA
ATOM      9  OE1 GLU F   1       0.798 -52.652 -30.025  0.00  0.00    +0.000 OA
ATOM     10  N   ASN F   2      -0.553 -51.977 -24.968  0.00  0.00    +0.000 N 
ATOM     11  CA  ASN F   2      -1.243 -50.706 -24.781  0.00  0.00    +0.000 C 
ATOM     12  C   ASN F   2      -0.659 -49.674 -25.724  0.00  0.00    +0.000 C 
ATOM     13  O   ASN F   2       0.523 -49.387 -25.624  0.00  0.00    +0.000 OA
ATOM     14  CB  ASN F   2      -1.138 -50.223 -23.336  0.00  0.00    +0.000 C 
ATOM     15  CG  ASN F   2      -1.896 -51.072 -22.343  0.00  0.00    +0.000 C 
ATOM     16  OD1 ASN F   2      -3.026 -50.751 -21.968  0.00  0.00    +0.000 OA
ATOM     17  ND2 ASN F   2      -1.289 -52.165 -21.879  0.00  0.00    +0.000 N 
ATOM     18  N   ILE F   3      -1.467 -49.153 -26.660  0.00  0.00    +0.000 N 
ATOM     19  CA  ILE F   3      -1.054 -48.110 -27.607  0.00  0.00    +0.000 C 
ATOM     20  C   ILE F   3      -0.781 -46.822 -26.803  0.00  0.00    +0.000 C 
ATOM     21  O   ILE F   3      -1.434 -46.583 -25.791  0.00  0.00    +0.000 OA
ATOM     22  CB  ILE F   3      -2.171 -47.865 -28.687  0.00  0.00    +0.000 C 
ATOM     23  CG1 ILE F   3      -2.710 -49.186 -29.324  0.00  0.00    +0.000 C 
ATOM     24  CG2 ILE F   3      -1.750 -46.859 -29.763  0.00  0.00    +0.000 C 
ATOM     25  CD1 ILE F   3      -1.854 -49.846 -30.371  0.00  0.00    +0.000 C 
ATOM     26  N   GLN F   4       0.165 -45.984 -27.250  0.00  0.00    +0.000 N 
ATOM     27  CA  GLN F   4       0.531 -44.703 -26.628  0.00  0.00    +0.000 C 
ATOM     28  C   GLN F   4      -0.726 -43.852 -26.411  0.00  0.00    +0.000 C 
ATOM     29  O   GLN F   4      -1.600 -43.858 -27.279  0.00  0.00    +0.000 OA
ATOM     30  CB  GLN F   4       1.510 -43.980 -27.565  0.00  0.00    +0.000 C 
ATOM     31  CG  GLN F   4       2.008 -42.618 -27.107  0.00  0.00    +0.000 C 
ATOM     32  CD  GLN F   4       3.056 -42.073 -28.056  0.00  0.00    +0.000 C 
ATOM     33  OE1 GLN F   4       3.067 -42.354 -29.263  0.00  0.00    +0.000 OA
ATOM     34  NE2 GLN F   4       3.973 -41.284 -27.521  0.00  0.00    +0.000 N 
ATOM     35  N   PRO F   5      -0.905 -43.220 -25.237  0.00  0.00    +0.000 N 
ATOM     36  CA  PRO F   5      -2.156 -42.489 -24.983  0.00  0.00    +0.000 C 
ATOM     37  C   PRO F   5      -2.356 -41.218 -25.800  0.00  0.00    +0.000 C 
ATOM     38  O   PRO F   5      -1.389 -40.554 -26.161  0.00  0.00    +0.000 OA
ATOM     39  CB  PRO F   5      -2.104 -42.183 -23.478  0.00  0.00    +0.000 C 
ATOM     40  CG  PRO F   5      -0.965 -42.965 -22.939  0.00  0.00    +0.000 C 
ATOM     41  CD  PRO F   5      -0.013 -43.162 -24.073  0.00  0.00    +0.000 C 
ATOM     42  N   PHE F   6      -3.621 -40.879 -26.091  0.00  0.00    +0.000 N 
ATOM     43  CA  PHE F   6      -3.922 -39.665 -26.840  0.00  0.00    +0.000 C 
ATOM     44  C   PHE F   6      -4.454 -38.614 -25.890  0.00  0.00    +0.000 C 
ATOM     45  O   PHE F   6      -5.502 -38.829 -25.285  0.00  0.00    +0.000 OA
ATOM     46  CB  PHE F   6      -4.998 -39.894 -27.921  0.00  0.00    +0.000 C 
ATOM     47  CG  PHE F   6      -4.987 -41.210 -28.653  0.00  0.00    +0.000 A 
ATOM     48  CD1 PHE F   6      -3.897 -41.588 -29.414  0.00  0.00    +0.000 A 
ATOM     49  CD2 PHE F   6      -6.100 -42.033 -28.645  0.00  0.00    +0.000 A 
ATOM     50  CE1 PHE F   6      -3.901 -42.790 -30.108  0.00  0.00    +0.000 A 
ATOM     51  CE2 PHE F   6      -6.104 -43.229 -29.346  0.00  0.00    +0.000 A 
ATOM     52  CZ  PHE F   6      -5.002 -43.604 -30.068  0.00  0.00    +0.000 A 
ATOM     53  N   SER F   7      -3.770 -37.471 -25.774  0.00  0.00    +0.000 N 
ATOM     54  CA  SER F   7      -4.288 -36.356 -24.980  0.00  0.00    +0.000 C 
ATOM     55  C   SER F   7      -5.252 -35.535 -25.886  0.00  0.00    +0.000 C 
ATOM     56  O   SER F   7      -5.343 -35.800 -27.092  0.00  0.00    +0.000 OA
ATOM     57  CB  SER F   7      -3.149 -35.484 -24.449  0.00  0.00    +0.000 C 
ATOM     58  OG  SER F   7      -2.557 -34.686 -25.464  0.00  0.00    +0.000 OA
ATOM     59  H   GLU F   1      -0.643 -56.316 -25.155  0.00  0.00    +0.000 HD
ATOM     60  H   GLU F   1      -2.069 -55.514 -25.471  0.00  0.00    +0.000 HD
ATOM     61  H   GLU F   1      -1.291 -55.287 -24.016  0.00  0.00    +0.000 HD
ATOM     62  H   ASN F   2       0.417 -52.028 -24.808  0.00  0.00    +0.000 HD
ATOM     63  H   ASN F   2      -0.386 -52.398 -22.195  0.00  0.00    +0.000 HD
ATOM     64  H   ASN F   2      -1.744 -52.738 -21.220  0.00  0.00    +0.000 HD
ATOM     65  H   ILE F   3      -2.390 -49.490 -26.715  0.00  0.00    +0.000 HD
ATOM     66  H   GLN F   4       0.655 -46.248 -28.062  0.00  0.00    +0.000 HD
ATOM     67  H   GLN F   4       4.681 -40.898 -28.086  0.00  0.00    +0.000 HD
ATOM     68  H   GLN F   4       3.948 -41.082 -26.558  0.00  0.00    +0.000 HD
ATOM     69  H   PHE F   6      -4.358 -41.460 -25.794  0.00  0.00    +0.000 HD
ATOM     70  H   SER F   7      -2.903 -37.378 -26.231  0.00  0.00    +0.000 HD
ATOM     71  H   SER F   7      -3.223 -34.084 -25.831  0.00  0.00    +0.000 HD
TER 
REMARK  Name = /data/user_data/xianyang/t3-aimnet-affinity-balanced/L4/P42226/pocket.pdb
REMARK                            x       y       z     vdW  Elec       q    Type
REMARK                         _______ _______ _______ _____ _____    ______ ____
ATOM      1  N   ASP G   1      -3.860 -34.275 -29.233  0.00  0.00    +0.000 N 
ATOM      2  CA  ASP G   1      -3.768 -35.281 -30.308  0.00  0.00    +0.000 C 
ATOM      3  C   ASP G   1      -5.163 -35.628 -30.839  0.00  0.00    +0.000 C 
ATOM      4  O   ASP G   1      -5.325 -35.908 -32.025  0.00  0.00    +0.000 OA
ATOM      5  CB  ASP G   1      -3.064 -36.562 -29.830  0.00  0.00    +0.000 C 
ATOM      6  CG  ASP G   1      -1.920 -36.317 -28.868  0.00  0.00    +0.000 C 
ATOM      7  OD2 ASP G   1      -2.193 -35.971 -27.706  0.00  0.00    +0.000 OA
ATOM      8  OD1 ASP G   1      -0.752 -36.462 -29.282  0.00  0.00    +0.000 OA
ATOM      9  H   ASP G   1      -4.331 -33.442 -29.586  0.00  0.00    +0.000 HD
ATOM     10  H   ASP G   1      -2.922 -34.027 -28.918  0.00  0.00    +0.000 HD
ATOM     11  H   ASP G   1      -4.390 -34.660 -28.451  0.00  0.00    +0.000 HD
TER 
REMARK  Name = /data/user_data/xianyang/t3-aimnet-affinity-balanced/L4/P42226/pocket.pdb
REMARK                            x       y       z     vdW  Elec       q    Type
REMARK                         _______ _______ _______ _____ _____    ______ ____
ATOM      1  N   ARG H   1      -8.821 -42.423 -35.360  0.00  0.00    +0.000 N 
ATOM      2  CA  ARG H   1      -7.564 -43.053 -34.986  0.00  0.00    +0.000 C 
ATOM      3  C   ARG H   1      -7.730 -44.545 -34.777  0.00  0.00    +0.000 C 
ATOM      4  O   ARG H   1      -6.866 -45.312 -35.200  0.00  0.00    +0.000 OA
ATOM      5  CB  ARG H   1      -6.980 -42.391 -33.742  0.00  0.00    +0.000 C 
ATOM      6  CG  ARG H   1      -6.268 -41.108 -34.070  0.00  0.00    +0.000 C 
ATOM      7  CD  ARG H   1      -5.900 -40.322 -32.837  0.00  0.00    +0.000 C 
ATOM      8  NE  ARG H   1      -5.021 -39.205 -33.182  0.00  0.00    +0.000 N 
ATOM      9  CZ  ARG H   1      -3.692 -39.269 -33.188  0.00  0.00    +0.000 C 
ATOM     10  NH2 ARG H   1      -3.072 -40.394 -32.842  0.00  0.00    +0.000 N 
ATOM     11  NH1 ARG H   1      -2.972 -38.208 -33.530  0.00  0.00    +0.000 N 
ATOM     12  H   ARG H   1      -9.195 -42.879 -36.192  0.00  0.00    +0.000 HD
ATOM     13  H   ARG H   1      -8.661 -41.435 -35.556  0.00  0.00    +0.000 HD
ATOM     14  H   ARG H   1      -9.488 -42.514 -34.594  0.00  0.00    +0.000 HD
ATOM     15  H   ARG H   1      -5.441 -38.349 -33.426  0.00  0.00    +0.000 HD
ATOM     16  H   ARG H   1      -2.088 -40.436 -32.848  0.00  0.00    +0.000 HD
ATOM     17  H   ARG H   1      -3.597 -41.185 -32.580  0.00  0.00    +0.000 HD
ATOM     18  H   ARG H   1      -3.421 -37.371 -33.788  0.00  0.00    +0.000 HD
ATOM     19  H   ARG H   1      -1.989 -38.258 -33.526  0.00  0.00    +0.000 HD
TER 
REMARK  Name = /data/user_data/xianyang/t3-aimnet-affinity-balanced/L4/P42226/pocket.pdb
REMARK                            x       y       z     vdW  Elec       q    Type
REMARK                         _______ _______ _______ _____ _____    ______ ____
ATOM      1  N   LEU I   1      -5.872 -48.004 -37.123  0.00  0.00    +0.000 N 
ATOM      2  CA  LEU I   1      -5.086 -49.087 -36.558  0.00  0.00    +0.000 C 
ATOM      3  C   LEU I   1      -5.687 -50.408 -36.981  0.00  0.00    +0.000 C 
ATOM      4  O   LEU I   1      -6.701 -50.823 -36.431  0.00  0.00    +0.000 OA
ATOM      5  CB  LEU I   1      -5.077 -48.964 -35.032  0.00  0.00    +0.000 C 
ATOM      6  CG  LEU I   1      -3.912 -48.181 -34.428  0.00  0.00    +0.000 C 
ATOM      7  CD1 LEU I   1      -3.870 -46.762 -34.933  0.00  0.00    +0.000 C 
ATOM      8  CD2 LEU I   1      -4.004 -48.147 -32.919  0.00  0.00    +0.000 C 
ATOM      9  H   LEU I   1      -5.879 -48.084 -38.140  0.00  0.00    +0.000 HD
ATOM     10  H   LEU I   1      -5.461 -47.110 -36.855  0.00  0.00    +0.000 HD
ATOM     11  H   LEU I   1      -6.828 -48.058 -36.771  0.00  0.00    +0.000 HD
TER 
