REMARK  Name = /data/user_data/xianyang/t3-aimnet-affinity-balanced/L2/P31153/pocket.pdb
REMARK                            x       y       z     vdW  Elec       q    Type
REMARK                         _______ _______ _______ _____ _____    ______ ____
ATOM      1  N   PHE A   1     -40.741  12.668 -46.920  0.00  0.00    +0.000 N 
ATOM      2  CA  PHE A   1     -41.291  11.982 -45.755  0.00  0.00    +0.000 C 
ATOM      3  C   PHE A   1     -40.861  12.732 -44.504  0.00  0.00    +0.000 C 
ATOM      4  O   PHE A   1     -39.934  13.534 -44.519  0.00  0.00    +0.000 OA
ATOM      5  CB  PHE A   1     -40.823  10.529 -45.695  0.00  0.00    +0.000 C 
ATOM      6  CG  PHE A   1     -39.340  10.322 -45.523  0.00  0.00    +0.000 A 
ATOM      7  CD1 PHE A   1     -38.471  10.397 -46.591  0.00  0.00    +0.000 A 
ATOM      8  CD2 PHE A   1     -38.794  10.084 -44.263  0.00  0.00    +0.000 A 
ATOM      9  CE1 PHE A   1     -37.109  10.191 -46.415  0.00  0.00    +0.000 A 
ATOM     10  CE2 PHE A   1     -37.440   9.891 -44.075  0.00  0.00    +0.000 A 
ATOM     11  CZ  PHE A   1     -36.599   9.920 -45.158  0.00  0.00    +0.000 A 
ATOM     12  N   LEU A   2     -41.537  12.424 -43.417  0.00  0.00    +0.000 N 
ATOM     13  CA  LEU A   2     -41.224  12.977 -42.085  0.00  0.00    +0.000 C 
ATOM     14  C   LEU A   2     -40.440  11.932 -41.293  0.00  0.00    +0.000 C 
ATOM     15  O   LEU A   2     -40.703  10.719 -41.409  0.00  0.00    +0.000 OA
ATOM     16  CB  LEU A   2     -42.492  13.351 -41.319  0.00  0.00    +0.000 C 
ATOM     17  CG  LEU A   2     -43.419  14.353 -42.019  0.00  0.00    +0.000 C 
ATOM     18  CD2 LEU A   2     -44.622  14.667 -41.112  0.00  0.00    +0.000 C 
ATOM     19  CD1 LEU A   2     -42.654  15.594 -42.456  0.00  0.00    +0.000 C 
ATOM     20  N   PHE A   3     -39.575  12.407 -40.437  0.00  0.00    +0.000 N 
ATOM     21  CA  PHE A   3     -38.931  11.510 -39.449  0.00  0.00    +0.000 C 
ATOM     22  C   PHE A   3     -38.726  12.257 -38.149  0.00  0.00    +0.000 C 
ATOM     23  O   PHE A   3     -38.291  13.430 -38.190  0.00  0.00    +0.000 OA
ATOM     24  CB  PHE A   3     -37.624  10.942 -39.968  0.00  0.00    +0.000 C 
ATOM     25  CG  PHE A   3     -37.176   9.749 -39.143  0.00  0.00    +0.000 A 
ATOM     26  CD2 PHE A   3     -36.370   9.951 -38.046  0.00  0.00    +0.000 A 
ATOM     27  CD1 PHE A   3     -37.650   8.489 -39.380  0.00  0.00    +0.000 A 
ATOM     28  CE2 PHE A   3     -35.980   8.888 -37.236  0.00  0.00    +0.000 A 
ATOM     29  CE1 PHE A   3     -37.230   7.430 -38.552  0.00  0.00    +0.000 A 
ATOM     30  CZ  PHE A   3     -36.398   7.664 -37.502  0.00  0.00    +0.000 A 
ATOM     31  H   PHE A   1     -41.021  12.176 -47.768  0.00  0.00    +0.000 HD
ATOM     32  H   PHE A   1     -39.723  12.683 -46.856  0.00  0.00    +0.000 HD
ATOM     33  H   PHE A   1     -41.094  13.624 -46.949  0.00  0.00    +0.000 HD
ATOM     34  H   LEU A   2     -42.289  11.793 -43.497  0.00  0.00    +0.000 HD
ATOM     35  H   PHE A   3     -39.350  13.365 -40.448  0.00  0.00    +0.000 HD
TER 
REMARK  Name = /data/user_data/xianyang/t3-aimnet-affinity-balanced/L2/P31153/pocket.pdb
REMARK                            x       y       z     vdW  Elec       q    Type
REMARK                         _______ _______ _______ _____ _____    ______ ____
ATOM      1  N   PHE B   1     -25.606  -2.770 -33.369  0.00  0.00    +0.000 N 
ATOM      2  CA  PHE B   1     -25.583  -2.086 -34.656  0.00  0.00    +0.000 C 
ATOM      3  C   PHE B   1     -24.790  -0.804 -34.590  0.00  0.00    +0.000 C 
ATOM      4  O   PHE B   1     -24.805  -0.086 -33.587  0.00  0.00    +0.000 OA
ATOM      5  CB  PHE B   1     -26.969  -1.740 -35.151  0.00  0.00    +0.000 C 
ATOM      6  CG  PHE B   1     -27.875  -2.894 -35.455  0.00  0.00    +0.000 A 
ATOM      7  CD2 PHE B   1     -28.708  -3.379 -34.462  0.00  0.00    +0.000 A 
ATOM      8  CD1 PHE B   1     -27.965  -3.437 -36.719  0.00  0.00    +0.000 A 
ATOM      9  CE2 PHE B   1     -29.632  -4.362 -34.737  0.00  0.00    +0.000 A 
ATOM     10  CE1 PHE B   1     -28.881  -4.435 -36.990  0.00  0.00    +0.000 A 
ATOM     11  CZ  PHE B   1     -29.730  -4.863 -36.011  0.00  0.00    +0.000 A 
ATOM     12  H   PHE B   1     -26.149  -3.630 -33.450  0.00  0.00    +0.000 HD
ATOM     13  H   PHE B   1     -26.033  -2.163 -32.669  0.00  0.00    +0.000 HD
ATOM     14  H   PHE B   1     -24.652  -2.996 -33.087  0.00  0.00    +0.000 HD
TER 
REMARK  Name = /data/user_data/xianyang/t3-aimnet-affinity-balanced/L2/P31153/pocket.pdb
REMARK                            x       y       z     vdW  Elec       q    Type
REMARK                         _______ _______ _______ _____ _____    ______ ____
ATOM      1  N   TYR C   1     -24.287   2.774 -37.207  0.00  0.00    +0.000 N 
ATOM      2  CA  TYR C   1     -24.930   3.501 -38.303  0.00  0.00    +0.000 C 
ATOM      3  C   TYR C   1     -24.138   4.762 -38.566  0.00  0.00    +0.000 C 
ATOM      4  O   TYR C   1     -23.571   5.366 -37.654  0.00  0.00    +0.000 OA
ATOM      5  CB  TYR C   1     -26.364   3.845 -37.913  0.00  0.00    +0.000 C 
ATOM      6  CG  TYR C   1     -27.172   4.586 -38.967  0.00  0.00    +0.000 A 
ATOM      7  CD1 TYR C   1     -27.679   3.961 -40.108  0.00  0.00    +0.000 A 
ATOM      8  CD2 TYR C   1     -27.491   5.928 -38.817  0.00  0.00    +0.000 A 
ATOM      9  CE1 TYR C   1     -28.416   4.661 -41.045  0.00  0.00    +0.000 A 
ATOM     10  CE2 TYR C   1     -28.208   6.636 -39.740  0.00  0.00    +0.000 A 
ATOM     11  CZ  TYR C   1     -28.702   5.976 -40.837  0.00  0.00    +0.000 A 
ATOM     12  OH  TYR C   1     -29.405   6.723 -41.786  0.00  0.00    +0.000 OA
ATOM     13  H   TYR C   1     -23.328   2.544 -37.468  0.00  0.00    +0.000 HD
ATOM     14  H   TYR C   1     -24.804   1.915 -37.020  0.00  0.00    +0.000 HD
ATOM     15  H   TYR C   1     -24.281   3.357 -36.370  0.00  0.00    +0.000 HD
ATOM     16  H   TYR C   1     -29.755   6.303 -42.547  0.00  0.00    +0.000 HD
TER 
REMARK  Name = /data/user_data/xianyang/t3-aimnet-affinity-balanced/L2/P31153/pocket.pdb
REMARK                            x       y       z     vdW  Elec       q    Type
REMARK                         _______ _______ _______ _____ _____    ______ ____
ATOM      1  N   MET D   1     -36.096  14.670 -48.112  0.00  0.00    +0.000 N 
ATOM      2  CA  MET D   1     -36.202  14.064 -49.457  0.00  0.00    +0.000 C 
ATOM      3  C   MET D   1     -35.227  12.894 -49.546  0.00  0.00    +0.000 C 
ATOM      4  O   MET D   1     -34.308  12.761 -48.735  0.00  0.00    +0.000 OA
ATOM      5  CB  MET D   1     -35.950  15.075 -50.563  0.00  0.00    +0.000 C 
ATOM      6  CG  MET D   1     -34.666  15.697 -50.479  0.00  0.00    +0.000 C 
ATOM      7  SD  MET D   1     -34.506  16.858 -51.877  0.00  0.00    +0.000 S 
ATOM      8  CE  MET D   1     -34.329  15.676 -53.216  0.00  0.00    +0.000 C 
ATOM      9  N   GLN D   2     -35.523  11.976 -50.445  0.00  0.00    +0.000 N 
ATOM     10  CA  GLN D   2     -34.606  10.828 -50.679  0.00  0.00    +0.000 C 
ATOM     11  C   GLN D   2     -33.857  11.072 -52.001  0.00  0.00    +0.000 C 
ATOM     12  O   GLN D   2     -34.431  11.714 -52.915  0.00  0.00    +0.000 OA
ATOM     13  CB  GLN D   2     -35.371   9.512 -50.553  0.00  0.00    +0.000 C 
ATOM     14  CG  GLN D   2     -36.739   9.435 -51.198  0.00  0.00    +0.000 C 
ATOM     15  CD  GLN D   2     -37.534   8.274 -50.650  0.00  0.00    +0.000 C 
ATOM     16  OE1 GLN D   2     -37.045   7.135 -50.570  0.00  0.00    +0.000 OA
ATOM     17  NE2 GLN D   2     -38.767   8.557 -50.237  0.00  0.00    +0.000 N 
ATOM     18  H   MET D   1     -36.744  15.454 -48.040  0.00  0.00    +0.000 HD
ATOM     19  H   MET D   1     -35.143  15.002 -47.963  0.00  0.00    +0.000 HD
ATOM     20  H   MET D   1     -36.328  13.972 -47.405  0.00  0.00    +0.000 HD
ATOM     21  H   GLN D   2     -36.356  12.051 -50.965  0.00  0.00    +0.000 HD
ATOM     22  H   GLN D   2     -39.115   9.474 -50.319  0.00  0.00    +0.000 HD
ATOM     23  H   GLN D   2     -39.331   7.849 -49.849  0.00  0.00    +0.000 HD
TER 
REMARK  Name = /data/user_data/xianyang/t3-aimnet-affinity-balanced/L2/P31153/pocket.pdb
REMARK                            x       y       z     vdW  Elec       q    Type
REMARK                         _______ _______ _______ _____ _____    ______ ____
ATOM      1  N   GLY E   1     -31.433   6.413 -52.108  0.00  0.00    +0.000 N 
ATOM      2  CA  GLY E   1     -31.276   5.770 -50.802  0.00  0.00    +0.000 C 
ATOM      3  C   GLY E   1     -30.627   6.690 -49.784  0.00  0.00    +0.000 C 
ATOM      4  O   GLY E   1     -30.680   6.291 -48.628  0.00  0.00    +0.000 OA
ATOM      5  N   ALA E   2     -29.978   7.804 -50.158  0.00  0.00    +0.000 N 
ATOM      6  CA  ALA E   2     -29.477   8.797 -49.201  0.00  0.00    +0.000 C 
ATOM      7  C   ALA E   2     -30.650   9.701 -48.822  0.00  0.00    +0.000 C 
ATOM      8  O   ALA E   2     -31.672   9.704 -49.514  0.00  0.00    +0.000 OA
ATOM      9  CB  ALA E   2     -28.296   9.575 -49.732  0.00  0.00    +0.000 C 
ATOM     10  N   VAL E   3     -30.467  10.400 -47.742  0.00  0.00    +0.000 N 
ATOM     11  CA  VAL E   3     -31.588  11.259 -47.280  0.00  0.00    +0.000 C 
ATOM     12  C   VAL E   3     -31.052  12.656 -47.119  0.00  0.00    +0.000 C 
ATOM     13  O   VAL E   3     -29.896  12.860 -46.785  0.00  0.00    +0.000 OA
ATOM     14  CB  VAL E   3     -32.268  10.725 -46.009  0.00  0.00    +0.000 C 
ATOM     15  CG1 VAL E   3     -32.933   9.429 -46.314  0.00  0.00    +0.000 C 
ATOM     16  CG2 VAL E   3     -31.312  10.630 -44.839  0.00  0.00    +0.000 C 
ATOM     17  H   GLY E   1     -31.871   5.760 -52.758  0.00  0.00    +0.000 HD
ATOM     18  H   GLY E   1     -30.517   6.685 -52.465  0.00  0.00    +0.000 HD
ATOM     19  H   GLY E   1     -32.020   7.242 -52.011  0.00  0.00    +0.000 HD
ATOM     20  H   ALA E   2     -29.831   7.962 -51.119  0.00  0.00    +0.000 HD
ATOM     21  H   VAL E   3     -29.616  10.362 -47.248  0.00  0.00    +0.000 HD
TER 
REMARK  Name = /data/user_data/xianyang/t3-aimnet-affinity-balanced/L2/P31153/pocket.pdb
REMARK                            x       y       z     vdW  Elec       q    Type
REMARK                         _______ _______ _______ _____ _____    ______ ____
ATOM      1  N   GLY F   1     -33.518   6.769 -33.523  0.00  0.00    +0.000 N 
ATOM      2  CA  GLY F   1     -34.487   5.945 -34.221  0.00  0.00    +0.000 C 
ATOM      3  C   GLY F   1     -34.039   5.468 -35.579  0.00  0.00    +0.000 C 
ATOM      4  O   GLY F   1     -34.577   4.514 -36.128  0.00  0.00    +0.000 OA
ATOM      5  N   TRP F   2     -33.066   6.198 -36.142  0.00  0.00    +0.000 N 
ATOM      6  CA  TRP F   2     -32.483   5.784 -37.430  0.00  0.00    +0.000 C 
ATOM      7  C   TRP F   2     -31.653   4.532 -37.215  0.00  0.00    +0.000 C 
ATOM      8  O   TRP F   2     -31.207   4.208 -36.105  0.00  0.00    +0.000 OA
ATOM      9  CB  TRP F   2     -31.610   6.908 -37.959  0.00  0.00    +0.000 C 
ATOM     10  CG  TRP F   2     -32.358   8.148 -38.346  0.00  0.00    +0.000 C 
ATOM     11  CD1 TRP F   2     -32.552   9.268 -37.581  0.00  0.00    +0.000 C 
ATOM     12  CD2 TRP F   2     -32.921   8.436 -39.637  0.00  0.00    +0.000 A 
ATOM     13  NE1 TRP F   2     -33.205  10.235 -38.316  0.00  0.00    +0.000 NA
ATOM     14  CE2 TRP F   2     -33.454   9.739 -39.567  0.00  0.00    +0.000 A 
ATOM     15  CE3 TRP F   2     -33.069   7.717 -40.828  0.00  0.00    +0.000 A 
ATOM     16  CZ2 TRP F   2     -34.047  10.356 -40.671  0.00  0.00    +0.000 A 
ATOM     17  CZ3 TRP F   2     -33.661   8.359 -41.911  0.00  0.00    +0.000 A 
ATOM     18  CH2 TRP F   2     -34.173   9.631 -41.810  0.00  0.00    +0.000 A 
ATOM     19  N   GLY F   3     -31.385   3.853 -38.298  0.00  0.00    +0.000 N 
ATOM     20  CA  GLY F   3     -30.574   2.627 -38.190  0.00  0.00    +0.000 C 
ATOM     21  C   GLY F   3     -31.310   1.569 -37.432  0.00  0.00    +0.000 C 
ATOM     22  O   GLY F   3     -32.517   1.352 -37.637  0.00  0.00    +0.000 OA
ATOM     23  N   ALA F   4     -30.631   0.931 -36.468  0.00  0.00    +0.000 N 
ATOM     24  CA  ALA F   4     -31.232  -0.181 -35.695  0.00  0.00    +0.000 C 
ATOM     25  C   ALA F   4     -30.517  -0.270 -34.381  0.00  0.00    +0.000 C 
ATOM     26  O   ALA F   4     -29.461   0.345 -34.221  0.00  0.00    +0.000 OA
ATOM     27  CB  ALA F   4     -31.139  -1.479 -36.482  0.00  0.00    +0.000 C 
ATOM     28  H   GLY F   1     -33.898   7.048 -32.618  0.00  0.00    +0.000 HD
ATOM     29  H   GLY F   1     -33.316   7.601 -34.078  0.00  0.00    +0.000 HD
ATOM     30  H   GLY F   1     -32.659   6.238 -33.382  0.00  0.00    +0.000 HD
ATOM     31  H   TRP F   2     -32.740   7.012 -35.694  0.00  0.00    +0.000 HD
ATOM     32  H   GLY F   3     -31.720   4.155 -39.173  0.00  0.00    +0.000 HD
ATOM     33  H   ALA F   4     -29.708   1.209 -36.268  0.00  0.00    +0.000 HD
TER 
REMARK  Name = /data/user_data/xianyang/t3-aimnet-affinity-balanced/L2/P31153/pocket.pdb
REMARK                            x       y       z     vdW  Elec       q    Type
REMARK                         _______ _______ _______ _____ _____    ______ ____
ATOM      1  N   ARG G   1     -24.841   6.179 -46.675  0.00  0.00    +0.000 N 
ATOM      2  CA  ARG G   1     -25.312   5.769 -45.338  0.00  0.00    +0.000 C 
ATOM      3  C   ARG G   1     -25.215   4.269 -45.261  0.00  0.00    +0.000 C 
ATOM      4  O   ARG G   1     -25.262   3.553 -46.278  0.00  0.00    +0.000 OA
ATOM      5  CB  ARG G   1     -26.682   6.336 -44.986  0.00  0.00    +0.000 C 
ATOM      6  CG  ARG G   1     -27.845   5.878 -45.799  0.00  0.00    +0.000 C 
ATOM      7  CD  ARG G   1     -29.076   6.669 -45.365  0.00  0.00    +0.000 C 
ATOM      8  NE  ARG G   1     -30.278   6.261 -46.007  0.00  0.00    +0.000 N 
ATOM      9  CZ  ARG G   1     -31.408   5.987 -45.395  0.00  0.00    +0.000 C 
ATOM     10  NH1 ARG G   1     -32.457   5.648 -46.075  0.00  0.00    +0.000 N 
ATOM     11  NH2 ARG G   1     -31.499   6.088 -44.080  0.00  0.00    +0.000 N 
ATOM     12  H   ARG G   1     -23.923   5.770 -46.852  0.00  0.00    +0.000 HD
ATOM     13  H   ARG G   1     -24.774   7.196 -46.715  0.00  0.00    +0.000 HD
ATOM     14  H   ARG G   1     -25.500   5.854 -47.382  0.00  0.00    +0.000 HD
ATOM     15  H   ARG G   1     -30.262   6.177 -46.988  0.00  0.00    +0.000 HD
ATOM     16  H   ARG G   1     -32.404   5.569 -47.055  0.00  0.00    +0.000 HD
ATOM     17  H   ARG G   1     -33.307   5.469 -45.612  0.00  0.00    +0.000 HD
ATOM     18  H   ARG G   1     -32.349   5.881 -43.628  0.00  0.00    +0.000 HD
ATOM     19  H   ARG G   1     -30.717   6.370 -43.553  0.00  0.00    +0.000 HD
TER 
REMARK  Name = /data/user_data/xianyang/t3-aimnet-affinity-balanced/L2/P31153/pocket.pdb
REMARK                            x       y       z     vdW  Elec       q    Type
REMARK                         _______ _______ _______ _____ _____    ______ ____
ATOM      1  N   LEU H   1     -25.688   0.682 -42.365  0.00  0.00    +0.000 N 
ATOM      2  CA  LEU H   1     -26.006  -0.047 -41.108  0.00  0.00    +0.000 C 
ATOM      3  C   LEU H   1     -25.098  -1.265 -41.034  0.00  0.00    +0.000 C 
ATOM      4  O   LEU H   1     -24.958  -1.998 -42.023  0.00  0.00    +0.000 OA
ATOM      5  CB  LEU H   1     -27.480  -0.416 -41.116  0.00  0.00    +0.000 C 
ATOM      6  CG  LEU H   1     -27.992  -1.151 -39.895  0.00  0.00    +0.000 C 
ATOM      7  CD2 LEU H   1     -28.001  -0.239 -38.660  0.00  0.00    +0.000 C 
ATOM      8  CD1 LEU H   1     -29.376  -1.679 -40.155  0.00  0.00    +0.000 C 
ATOM      9  N   VAL H   2     -24.522  -1.491 -39.876  0.00  0.00    +0.000 N 
ATOM     10  CA  VAL H   2     -23.627  -2.632 -39.576  0.00  0.00    +0.000 C 
ATOM     11  C   VAL H   2     -24.244  -3.388 -38.416  0.00  0.00    +0.000 C 
ATOM     12  O   VAL H   2     -24.505  -2.781 -37.368  0.00  0.00    +0.000 OA
ATOM     13  CB  VAL H   2     -22.233  -2.123 -39.201  0.00  0.00    +0.000 C 
ATOM     14  CG2 VAL H   2     -21.337  -3.287 -38.878  0.00  0.00    +0.000 C 
ATOM     15  CG1 VAL H   2     -21.636  -1.241 -40.335  0.00  0.00    +0.000 C 
ATOM     16  N   GLN H   3     -24.425  -4.688 -38.554  0.00  0.00    +0.000 N 
ATOM     17  CA  GLN H   3     -24.755  -5.573 -37.429  0.00  0.00    +0.000 C 
ATOM     18  C   GLN H   3     -23.545  -6.415 -37.090  0.00  0.00    +0.000 C 
ATOM     19  O   GLN H   3     -22.836  -6.906 -37.990  0.00  0.00    +0.000 OA
ATOM     20  CB  GLN H   3     -25.967  -6.459 -37.687  0.00  0.00    +0.000 C 
ATOM     21  CG  GLN H   3     -26.511  -7.053 -36.380  0.00  0.00    +0.000 C 
ATOM     22  CD  GLN H   3     -27.502  -8.172 -36.508  0.00  0.00    +0.000 C 
ATOM     23  OE1 GLN H   3     -27.298  -9.162 -37.209  0.00  0.00    +0.000 OA
ATOM     24  NE2 GLN H   3     -28.579  -8.076 -35.774  0.00  0.00    +0.000 N 
ATOM     25  H   LEU H   1     -26.284   1.506 -42.440  0.00  0.00    +0.000 HD
ATOM     26  H   LEU H   1     -25.852   0.070 -43.164  0.00  0.00    +0.000 HD
ATOM     27  H   LEU H   1     -24.710   0.970 -42.353  0.00  0.00    +0.000 HD
ATOM     28  H   VAL H   2     -24.699  -0.851 -39.149  0.00  0.00    +0.000 HD
ATOM     29  H   GLN H   3     -24.335  -5.082 -39.452  0.00  0.00    +0.000 HD
ATOM     30  H   GLN H   3     -29.267  -8.780 -35.814  0.00  0.00    +0.000 HD
ATOM     31  H   GLN H   3     -28.703  -7.300 -35.181  0.00  0.00    +0.000 HD
TER 
REMARK  Name = /data/user_data/xianyang/t3-aimnet-affinity-balanced/L2/P31153/pocket.pdb
REMARK                            x       y       z     vdW  Elec       q    Type
REMARK                         _______ _______ _______ _____ _____    ______ ____
ATOM      1  N   SER I   1     -22.786  -8.078 -40.609  0.00  0.00    +0.000 N 
ATOM      2  CA  SER I   1     -23.687  -7.844 -41.736  0.00  0.00    +0.000 C 
ATOM      3  C   SER I   1     -23.687  -6.372 -42.081  0.00  0.00    +0.000 C 
ATOM      4  O   SER I   1     -23.530  -5.519 -41.182  0.00  0.00    +0.000 OA
ATOM      5  CB  SER I   1     -25.053  -8.312 -41.397  0.00  0.00    +0.000 C 
ATOM      6  OG  SER I   1     -24.997  -9.622 -40.882  0.00  0.00    +0.000 OA
ATOM      7  N   ILE I   2     -23.954  -6.072 -43.344  0.00  0.00    +0.000 N 
ATOM      8  CA  ILE I   2     -23.909  -4.684 -43.868  0.00  0.00    +0.000 C 
ATOM      9  C   ILE I   2     -25.131  -4.403 -44.691  0.00  0.00    +0.000 C 
ATOM     10  O   ILE I   2     -25.485  -5.217 -45.564  0.00  0.00    +0.000 OA
ATOM     11  CB  ILE I   2     -22.679  -4.465 -44.755  0.00  0.00    +0.000 C 
ATOM     12  CG1 ILE I   2     -21.372  -4.835 -44.072  0.00  0.00    +0.000 C 
ATOM     13  CG2 ILE I   2     -22.645  -3.032 -45.312  0.00  0.00    +0.000 C 
ATOM     14  CD1 ILE I   2     -21.014  -4.014 -42.929  0.00  0.00    +0.000 C 
ATOM     15  N   PHE I   3     -25.779  -3.278 -44.455  0.00  0.00    +0.000 N 
ATOM     16  CA  PHE I   3     -26.936  -2.784 -45.246  0.00  0.00    +0.000 C 
ATOM     17  C   PHE I   3     -26.596  -1.376 -45.710  0.00  0.00    +0.000 C 
ATOM     18  O   PHE I   3     -26.463  -0.509 -44.828  0.00  0.00    +0.000 OA
ATOM     19  CB  PHE I   3     -28.211  -2.884 -44.407  0.00  0.00    +0.000 C 
ATOM     20  CG  PHE I   3     -29.472  -2.417 -45.081  0.00  0.00    +0.000 A 
ATOM     21  CD1 PHE I   3     -29.848  -2.851 -46.349  0.00  0.00    +0.000 A 
ATOM     22  CD2 PHE I   3     -30.377  -1.624 -44.407  0.00  0.00    +0.000 A 
ATOM     23  CE1 PHE I   3     -31.061  -2.452 -46.923  0.00  0.00    +0.000 A 
ATOM     24  CE2 PHE I   3     -31.594  -1.240 -44.969  0.00  0.00    +0.000 A 
ATOM     25  CZ  PHE I   3     -31.937  -1.666 -46.223  0.00  0.00    +0.000 A 
ATOM     26  H   SER I   1     -21.849  -7.754 -40.850  0.00  0.00    +0.000 HD
ATOM     27  H   SER I   1     -22.757  -9.076 -40.398  0.00  0.00    +0.000 HD
ATOM     28  H   SER I   1     -23.123  -7.568 -39.793  0.00  0.00    +0.000 HD
ATOM     29  H   SER I   1     -24.614 -10.215 -41.548  0.00  0.00    +0.000 HD
ATOM     30  H   ILE I   2     -24.192  -6.801 -43.961  0.00  0.00    +0.000 HD
ATOM     31  H   PHE I   3     -25.474  -2.725 -43.700  0.00  0.00    +0.000 HD
TER 
REMARK  Name = /data/user_data/xianyang/t3-aimnet-affinity-balanced/L2/P31153/pocket.pdb
REMARK                            x       y       z     vdW  Elec       q    Type
REMARK                         _______ _______ _______ _____ _____    ______ ____
ATOM      1  N   TYR J   1     -28.434   0.596 -47.927  0.00  0.00    +0.000 N 
ATOM      2  CA  TYR J   1     -29.632   1.382 -48.315  0.00  0.00    +0.000 C 
ATOM      3  C   TYR J   1     -29.586   1.710 -49.806  0.00  0.00    +0.000 C 
ATOM      4  O   TYR J   1     -30.328   2.635 -50.202  0.00  0.00    +0.000 OA
ATOM      5  CB  TYR J   1     -29.700   2.677 -47.489  0.00  0.00    +0.000 C 
ATOM      6  CG  TYR J   1     -29.956   2.452 -46.005  0.00  0.00    +0.000 A 
ATOM      7  CD2 TYR J   1     -28.887   2.247 -45.144  0.00  0.00    +0.000 A 
ATOM      8  CD1 TYR J   1     -31.227   2.399 -45.506  0.00  0.00    +0.000 A 
ATOM      9  CE2 TYR J   1     -29.128   2.078 -43.778  0.00  0.00    +0.000 A 
ATOM     10  CE1 TYR J   1     -31.475   2.196 -44.158  0.00  0.00    +0.000 A 
ATOM     11  CZ  TYR J   1     -30.403   2.043 -43.303  0.00  0.00    +0.000 A 
ATOM     12  OH  TYR J   1     -30.630   1.845 -41.943  0.00  0.00    +0.000 OA
ATOM     13  H   TYR J   1     -28.396  -0.261 -48.479  0.00  0.00    +0.000 HD
ATOM     14  H   TYR J   1     -28.488   0.360 -46.936  0.00  0.00    +0.000 HD
ATOM     15  H   TYR J   1     -27.594   1.149 -48.099  0.00  0.00    +0.000 HD
ATOM     16  H   TYR J   1     -31.507   1.820 -41.613  0.00  0.00    +0.000 HD
TER 
REMARK  Name = /data/user_data/xianyang/t3-aimnet-affinity-balanced/L2/P31153/pocket.pdb
REMARK                            x       y       z     vdW  Elec       q    Type
REMARK                         _______ _______ _______ _____ _____    ______ ____
ATOM      1  N   GLU K   1     -23.157  -5.178 -50.875  0.00  0.00    +0.000 N 
ATOM      2  CA  GLU K   1     -23.012  -5.366 -49.410  0.00  0.00    +0.000 C 
ATOM      3  C   GLU K   1     -21.995  -6.473 -49.161  0.00  0.00    +0.000 C 
ATOM      4  O   GLU K   1     -21.183  -6.370 -48.220  0.00  0.00    +0.000 OA
ATOM      5  CB  GLU K   1     -24.371  -5.616 -48.772  0.00  0.00    +0.000 C 
ATOM      6  CG  GLU K   1     -25.202  -4.341 -48.803  0.00  0.00    +0.000 C 
ATOM      7  CD  GLU K   1     -26.700  -4.434 -48.900  0.00  0.00    +0.000 C 
ATOM      8  OE1 GLU K   1     -27.200  -5.455 -49.454  0.00  0.00    +0.000 OA
ATOM      9  OE2 GLU K   1     -27.405  -3.505 -48.506  0.00  0.00    +0.000 OA
ATOM     10  H   GLU K   1     -22.240  -5.012 -51.289  0.00  0.00    +0.000 HD
ATOM     11  H   GLU K   1     -23.762  -4.377 -51.057  0.00  0.00    +0.000 HD
ATOM     12  H   GLU K   1     -23.569  -6.016 -51.286  0.00  0.00    +0.000 HD
TER 
REMARK  Name = /data/user_data/xianyang/t3-aimnet-affinity-balanced/L2/P31153/pocket.pdb
REMARK                            x       y       z     vdW  Elec       q    Type
REMARK                         _______ _______ _______ _____ _____    ______ ____
ATOM      1  N   PHE L   1     -27.219 -12.794 -46.925  0.00  0.00    +0.000 N 
ATOM      2  CA  PHE L   1     -26.680 -12.103 -45.745  0.00  0.00    +0.000 C 
ATOM      3  C   PHE L   1     -27.121 -12.847 -44.499  0.00  0.00    +0.000 C 
ATOM      4  O   PHE L   1     -28.046 -13.647 -44.513  0.00  0.00    +0.000 OA
ATOM      5  CB  PHE L   1     -27.150 -10.649 -45.701  0.00  0.00    +0.000 C 
ATOM      6  CG  PHE L   1     -28.628 -10.425 -45.521  0.00  0.00    +0.000 A 
ATOM      7  CD1 PHE L   1     -29.499 -10.524 -46.585  0.00  0.00    +0.000 A 
ATOM      8  CD2 PHE L   1     -29.158 -10.180 -44.255  0.00  0.00    +0.000 A 
ATOM      9  CE1 PHE L   1     -30.861 -10.325 -46.408  0.00  0.00    +0.000 A 
ATOM     10  CE2 PHE L   1     -30.514  -9.987 -44.073  0.00  0.00    +0.000 A 
ATOM     11  CZ  PHE L   1     -31.365 -10.032 -45.155  0.00  0.00    +0.000 A 
ATOM     12  N   LEU L   2     -26.426 -12.536 -43.421  0.00  0.00    +0.000 N 
ATOM     13  CA  LEU L   2     -26.736 -13.079 -42.080  0.00  0.00    +0.000 C 
ATOM     14  C   LEU L   2     -27.530 -12.042 -41.285  0.00  0.00    +0.000 C 
ATOM     15  O   LEU L   2     -27.259 -10.831 -41.405  0.00  0.00    +0.000 OA
ATOM     16  CB  LEU L   2     -25.480 -13.473 -41.324  0.00  0.00    +0.000 C 
ATOM     17  CG  LEU L   2     -24.541 -14.456 -42.021  0.00  0.00    +0.000 C 
ATOM     18  CD2 LEU L   2     -23.354 -14.766 -41.106  0.00  0.00    +0.000 C 
ATOM     19  CD1 LEU L   2     -25.293 -15.711 -42.441  0.00  0.00    +0.000 C 
ATOM     20  N   PHE L   3     -28.398 -12.514 -40.434  0.00  0.00    +0.000 N 
ATOM     21  CA  PHE L   3     -29.024 -11.614 -39.444  0.00  0.00    +0.000 C 
ATOM     22  C   PHE L   3     -29.244 -12.373 -38.156  0.00  0.00    +0.000 C 
ATOM     23  O   PHE L   3     -29.659 -13.546 -38.191  0.00  0.00    +0.000 OA
ATOM     24  CB  PHE L   3     -30.324 -11.045 -39.960  0.00  0.00    +0.000 C 
ATOM     25  CG  PHE L   3     -30.817  -9.854 -39.153  0.00  0.00    +0.000 A 
ATOM     26  CD2 PHE L   3     -31.590 -10.056 -38.034  0.00  0.00    +0.000 A 
ATOM     27  CD1 PHE L   3     -30.320  -8.598 -39.382  0.00  0.00    +0.000 A 
ATOM     28  CE2 PHE L   3     -31.989  -9.001 -37.240  0.00  0.00    +0.000 A 
ATOM     29  CE1 PHE L   3     -30.747  -7.538 -38.561  0.00  0.00    +0.000 A 
ATOM     30  CZ  PHE L   3     -31.569  -7.775 -37.513  0.00  0.00    +0.000 A 
ATOM     31  H   PHE L   1     -26.928 -12.302 -47.770  0.00  0.00    +0.000 HD
ATOM     32  H   PHE L   1     -28.238 -12.810 -46.874  0.00  0.00    +0.000 HD
ATOM     33  H   PHE L   1     -26.865 -13.750 -46.950  0.00  0.00    +0.000 HD
ATOM     34  H   LEU L   2     -25.668 -11.915 -43.513  0.00  0.00    +0.000 HD
ATOM     35  H   PHE L   3     -28.636 -13.469 -40.451  0.00  0.00    +0.000 HD
TER 
REMARK  Name = /data/user_data/xianyang/t3-aimnet-affinity-balanced/L2/P31153/pocket.pdb
REMARK                            x       y       z     vdW  Elec       q    Type
REMARK                         _______ _______ _______ _____ _____    ______ ____
ATOM      1  N   PHE M   1     -42.353   2.659 -33.352  0.00  0.00    +0.000 N 
ATOM      2  CA  PHE M   1     -42.379   1.980 -34.640  0.00  0.00    +0.000 C 
ATOM      3  C   PHE M   1     -43.180   0.704 -34.583  0.00  0.00    +0.000 C 
ATOM      4  O   PHE M   1     -43.157  -0.023 -33.574  0.00  0.00    +0.000 OA
ATOM      5  CB  PHE M   1     -40.999   1.638 -35.148  0.00  0.00    +0.000 C 
ATOM      6  CG  PHE M   1     -40.098   2.797 -35.434  0.00  0.00    +0.000 A 
ATOM      7  CD2 PHE M   1     -39.261   3.285 -34.448  0.00  0.00    +0.000 A 
ATOM      8  CD1 PHE M   1     -40.012   3.330 -36.706  0.00  0.00    +0.000 A 
ATOM      9  CE2 PHE M   1     -38.337   4.266 -34.736  0.00  0.00    +0.000 A 
ATOM     10  CE1 PHE M   1     -39.084   4.321 -37.003  0.00  0.00    +0.000 A 
ATOM     11  CZ  PHE M   1     -38.240   4.754 -36.014  0.00  0.00    +0.000 A 
ATOM     12  H   PHE M   1     -41.804   3.515 -33.430  0.00  0.00    +0.000 HD
ATOM     13  H   PHE M   1     -41.932   2.047 -32.653  0.00  0.00    +0.000 HD
ATOM     14  H   PHE M   1     -43.306   2.891 -33.071  0.00  0.00    +0.000 HD
TER 
REMARK  Name = /data/user_data/xianyang/t3-aimnet-affinity-balanced/L2/P31153/pocket.pdb
REMARK                            x       y       z     vdW  Elec       q    Type
REMARK                         _______ _______ _______ _____ _____    ______ ____
ATOM      1  N   TYR N   1     -43.679  -2.878 -37.196  0.00  0.00    +0.000 N 
ATOM      2  CA  TYR N   1     -43.044  -3.607 -38.301  0.00  0.00    +0.000 C 
ATOM      3  C   TYR N   1     -43.851  -4.860 -38.589  0.00  0.00    +0.000 C 
ATOM      4  O   TYR N   1     -44.388  -5.478 -37.660  0.00  0.00    +0.000 OA
ATOM      5  CB  TYR N   1     -41.610  -3.958 -37.917  0.00  0.00    +0.000 C 
ATOM      6  CG  TYR N   1     -40.800  -4.692 -38.954  0.00  0.00    +0.000 A 
ATOM      7  CD1 TYR N   1     -40.288  -4.062 -40.085  0.00  0.00    +0.000 A 
ATOM      8  CD2 TYR N   1     -40.504  -6.038 -38.808  0.00  0.00    +0.000 A 
ATOM      9  CE1 TYR N   1     -39.541  -4.751 -41.024  0.00  0.00    +0.000 A 
ATOM     10  CE2 TYR N   1     -39.764  -6.734 -39.728  0.00  0.00    +0.000 A 
ATOM     11  CZ  TYR N   1     -39.270  -6.076 -40.825  0.00  0.00    +0.000 A 
ATOM     12  OH  TYR N   1     -38.585  -6.837 -41.792  0.00  0.00    +0.000 OA
ATOM     13  H   TYR N   1     -44.638  -2.642 -37.451  0.00  0.00    +0.000 HD
ATOM     14  H   TYR N   1     -43.157  -2.022 -37.009  0.00  0.00    +0.000 HD
ATOM     15  H   TYR N   1     -43.683  -3.463 -36.361  0.00  0.00    +0.000 HD
ATOM     16  H   TYR N   1     -38.234  -6.420 -42.554  0.00  0.00    +0.000 HD
TER 
REMARK  Name = /data/user_data/xianyang/t3-aimnet-affinity-balanced/L2/P31153/pocket.pdb
REMARK                            x       y       z     vdW  Elec       q    Type
REMARK                         _______ _______ _______ _____ _____    ______ ____
ATOM      1  N   GLN O   1     -32.411 -12.061 -50.436  0.00  0.00    +0.000 N 
ATOM      2  CA  GLN O   1     -33.316 -10.906 -50.684  0.00  0.00    +0.000 C 
ATOM      3  C   GLN O   1     -34.086 -11.154 -51.998  0.00  0.00    +0.000 C 
ATOM      4  O   GLN O   1     -33.546 -11.789 -52.941  0.00  0.00    +0.000 OA
ATOM      5  CB  GLN O   1     -32.542  -9.592 -50.568  0.00  0.00    +0.000 C 
ATOM      6  CG  GLN O   1     -31.185  -9.506 -51.233  0.00  0.00    +0.000 C 
ATOM      7  CD  GLN O   1     -30.398  -8.342 -50.682  0.00  0.00    +0.000 C 
ATOM      8  OE1 GLN O   1     -30.872  -7.199 -50.644  0.00  0.00    +0.000 OA
ATOM      9  NE2 GLN O   1     -29.189  -8.625 -50.209  0.00  0.00    +0.000 N 
ATOM     10  H   GLN O   1     -32.939 -12.930 -50.516  0.00  0.00    +0.000 HD
ATOM     11  H   GLN O   1     -32.016 -11.988 -49.498  0.00  0.00    +0.000 HD
ATOM     12  H   GLN O   1     -31.657 -12.056 -51.123  0.00  0.00    +0.000 HD
ATOM     13  H   GLN O   1     -28.845  -9.546 -50.256  0.00  0.00    +0.000 HD
ATOM     14  H   GLN O   1     -28.637  -7.913 -49.811  0.00  0.00    +0.000 HD
TER 
REMARK  Name = /data/user_data/xianyang/t3-aimnet-affinity-balanced/L2/P31153/pocket.pdb
REMARK                            x       y       z     vdW  Elec       q    Type
REMARK                         _______ _______ _______ _____ _____    ______ ____
ATOM      1  N   GLY P   1     -36.547  -6.508 -52.132  0.00  0.00    +0.000 N 
ATOM      2  CA  GLY P   1     -36.711  -5.895 -50.809  0.00  0.00    +0.000 C 
ATOM      3  C   GLY P   1     -37.340  -6.826 -49.789  0.00  0.00    +0.000 C 
ATOM      4  O   GLY P   1     -37.309  -6.415 -48.640  0.00  0.00    +0.000 OA
ATOM      5  N   ALA P   2     -38.016  -7.927 -50.147  0.00  0.00    +0.000 N 
ATOM      6  CA  ALA P   2     -38.495  -8.921 -49.182  0.00  0.00    +0.000 C 
ATOM      7  C   ALA P   2     -37.301  -9.814 -48.841  0.00  0.00    +0.000 C 
ATOM      8  O   ALA P   2     -36.281  -9.786 -49.518  0.00  0.00    +0.000 OA
ATOM      9  CB  ALA P   2     -39.682  -9.700 -49.698  0.00  0.00    +0.000 C 
ATOM     10  N   VAL P   3     -37.475 -10.502 -47.773  0.00  0.00    +0.000 N 
ATOM     11  CA  VAL P   3     -36.366 -11.360 -47.282  0.00  0.00    +0.000 C 
ATOM     12  C   VAL P   3     -36.908 -12.759 -47.132  0.00  0.00    +0.000 C 
ATOM     13  O   VAL P   3     -38.067 -12.961 -46.783  0.00  0.00    +0.000 OA
ATOM     14  CB  VAL P   3     -35.725 -10.835 -45.988  0.00  0.00    +0.000 C 
ATOM     15  CG1 VAL P   3     -35.044  -9.534 -46.256  0.00  0.00    +0.000 C 
ATOM     16  CG2 VAL P   3     -36.704 -10.771 -44.852  0.00  0.00    +0.000 C 
ATOM     17  H   GLY P   1     -36.121  -5.834 -52.769  0.00  0.00    +0.000 HD
ATOM     18  H   GLY P   1     -37.459  -6.787 -52.493  0.00  0.00    +0.000 HD
ATOM     19  H   GLY P   1     -35.946  -7.329 -52.054  0.00  0.00    +0.000 HD
ATOM     20  H   ALA P   2     -38.199  -8.075 -51.103  0.00  0.00    +0.000 HD
ATOM     21  H   VAL P   3     -38.330 -10.462 -47.286  0.00  0.00    +0.000 HD
TER 
REMARK  Name = /data/user_data/xianyang/t3-aimnet-affinity-balanced/L2/P31153/pocket.pdb
REMARK                            x       y       z     vdW  Elec       q    Type
REMARK                         _______ _______ _______ _____ _____    ______ ____
ATOM      1  N   GLY Q   1     -34.453  -6.894 -33.496  0.00  0.00    +0.000 N 
ATOM      2  CA  GLY Q   1     -33.504  -6.050 -34.184  0.00  0.00    +0.000 C 
ATOM      3  C   GLY Q   1     -33.944  -5.599 -35.559  0.00  0.00    +0.000 C 
ATOM      4  O   GLY Q   1     -33.411  -4.645 -36.103  0.00  0.00    +0.000 OA
ATOM      5  N   TRP Q   2     -34.905  -6.326 -36.136  0.00  0.00    +0.000 N 
ATOM      6  CA  TRP Q   2     -35.476  -5.893 -37.418  0.00  0.00    +0.000 C 
ATOM      7  C   TRP Q   2     -36.301  -4.631 -37.201  0.00  0.00    +0.000 C 
ATOM      8  O   TRP Q   2     -36.764  -4.316 -36.096  0.00  0.00    +0.000 OA
ATOM      9  CB  TRP Q   2     -36.360  -7.013 -37.965  0.00  0.00    +0.000 C 
ATOM     10  CG  TRP Q   2     -35.622  -8.258 -38.353  0.00  0.00    +0.000 C 
ATOM     11  CD1 TRP Q   2     -35.411  -9.371 -37.582  0.00  0.00    +0.000 C 
ATOM     12  CD2 TRP Q   2     -35.034  -8.547 -39.635  0.00  0.00    +0.000 A 
ATOM     13  NE1 TRP Q   2     -34.748 -10.340 -38.320  0.00  0.00    +0.000 NA
ATOM     14  CE2 TRP Q   2     -34.503  -9.844 -39.575  0.00  0.00    +0.000 A 
ATOM     15  CE3 TRP Q   2     -34.907  -7.836 -40.822  0.00  0.00    +0.000 A 
ATOM     16  CZ2 TRP Q   2     -33.903 -10.457 -40.681  0.00  0.00    +0.000 A 
ATOM     17  CZ3 TRP Q   2     -34.291  -8.462 -41.903  0.00  0.00    +0.000 A 
ATOM     18  CH2 TRP Q   2     -33.777  -9.733 -41.805  0.00  0.00    +0.000 A 
ATOM     19  N   GLY Q   3     -36.607  -3.966 -38.290  0.00  0.00    +0.000 N 
ATOM     20  CA  GLY Q   3     -37.416  -2.738 -38.195  0.00  0.00    +0.000 C 
ATOM     21  C   GLY Q   3     -36.671  -1.671 -37.449  0.00  0.00    +0.000 C 
ATOM     22  O   GLY Q   3     -35.501  -1.416 -37.690  0.00  0.00    +0.000 OA
ATOM     23  N   ALA Q   4     -37.324  -1.029 -36.470  0.00  0.00    +0.000 N 
ATOM     24  CA  ALA Q   4     -36.735   0.087 -35.701  0.00  0.00    +0.000 C 
ATOM     25  C   ALA Q   4     -37.454   0.161 -34.382  0.00  0.00    +0.000 C 
ATOM     26  O   ALA Q   4     -38.510  -0.448 -34.217  0.00  0.00    +0.000 OA
ATOM     27  CB  ALA Q   4     -36.838   1.385 -36.490  0.00  0.00    +0.000 C 
ATOM     28  H   GLY Q   1     -34.080  -7.151 -32.582  0.00  0.00    +0.000 HD
ATOM     29  H   GLY Q   1     -34.618  -7.738 -34.045  0.00  0.00    +0.000 HD
ATOM     30  H   GLY Q   1     -35.331  -6.390 -33.375  0.00  0.00    +0.000 HD
ATOM     31  H   TRP Q   2     -35.229  -7.149 -35.703  0.00  0.00    +0.000 HD
ATOM     32  H   GLY Q   3     -36.297  -4.286 -39.168  0.00  0.00    +0.000 HD
ATOM     33  H   ALA Q   4     -38.241  -1.315 -36.253  0.00  0.00    +0.000 HD
TER 
REMARK  Name = /data/user_data/xianyang/t3-aimnet-affinity-balanced/L2/P31153/pocket.pdb
REMARK                            x       y       z     vdW  Elec       q    Type
REMARK                         _______ _______ _______ _____ _____    ______ ____
ATOM      1  N   ARG R   1     -43.130  -6.283 -46.672  0.00  0.00    +0.000 N 
ATOM      2  CA  ARG R   1     -42.651  -5.864 -45.343  0.00  0.00    +0.000 C 
ATOM      3  C   ARG R   1     -42.749  -4.365 -45.267  0.00  0.00    +0.000 C 
ATOM      4  O   ARG R   1     -42.713  -3.663 -46.267  0.00  0.00    +0.000 OA
ATOM      5  CB  ARG R   1     -41.277  -6.427 -44.994  0.00  0.00    +0.000 C 
ATOM      6  CG  ARG R   1     -40.122  -5.985 -45.813  0.00  0.00    +0.000 C 
ATOM      7  CD  ARG R   1     -38.885  -6.754 -45.348  0.00  0.00    +0.000 C 
ATOM      8  NE  ARG R   1     -37.681  -6.381 -46.008  0.00  0.00    +0.000 N 
ATOM      9  CZ  ARG R   1     -36.566  -6.080 -45.412  0.00  0.00    +0.000 C 
ATOM     10  NH1 ARG R   1     -35.509  -5.765 -46.086  0.00  0.00    +0.000 N 
ATOM     11  NH2 ARG R   1     -36.487  -6.214 -44.108  0.00  0.00    +0.000 N 
ATOM     12  H   ARG R   1     -44.049  -5.876 -46.846  0.00  0.00    +0.000 HD
ATOM     13  H   ARG R   1     -43.197  -7.300 -46.704  0.00  0.00    +0.000 HD
ATOM     14  H   ARG R   1     -42.476  -5.963 -47.386  0.00  0.00    +0.000 HD
ATOM     15  H   ARG R   1     -37.693  -6.348 -46.992  0.00  0.00    +0.000 HD
ATOM     16  H   ARG R   1     -35.561  -5.663 -47.064  0.00  0.00    +0.000 HD
ATOM     17  H   ARG R   1     -34.652  -5.627 -45.622  0.00  0.00    +0.000 HD
ATOM     18  H   ARG R   1     -35.650  -5.991 -43.640  0.00  0.00    +0.000 HD
ATOM     19  H   ARG R   1     -37.265  -6.538 -43.598  0.00  0.00    +0.000 HD
TER 
REMARK  Name = /data/user_data/xianyang/t3-aimnet-affinity-balanced/L2/P31153/pocket.pdb
REMARK                            x       y       z     vdW  Elec       q    Type
REMARK                         _______ _______ _______ _____ _____    ______ ____
ATOM      1  N   LEU S   1     -42.288  -0.797 -42.352  0.00  0.00    +0.000 N 
ATOM      2  CA  LEU S   1     -41.960  -0.068 -41.108  0.00  0.00    +0.000 C 
ATOM      3  C   LEU S   1     -42.866   1.150 -41.034  0.00  0.00    +0.000 C 
ATOM      4  O   LEU S   1     -43.006   1.892 -42.015  0.00  0.00    +0.000 OA
ATOM      5  CB  LEU S   1     -40.493   0.308 -41.110  0.00  0.00    +0.000 C 
ATOM      6  CG  LEU S   1     -39.975   1.029 -39.886  0.00  0.00    +0.000 C 
ATOM      7  CD2 LEU S   1     -39.974   0.136 -38.641  0.00  0.00    +0.000 C 
ATOM      8  CD1 LEU S   1     -38.595   1.564 -40.135  0.00  0.00    +0.000 C 
ATOM      9  N   VAL S   2     -43.452   1.375 -39.887  0.00  0.00    +0.000 N 
ATOM     10  CA  VAL S   2     -44.338   2.525 -39.574  0.00  0.00    +0.000 C 
ATOM     11  C   VAL S   2     -43.722   3.288 -38.425  0.00  0.00    +0.000 C 
ATOM     12  O   VAL S   2     -43.466   2.679 -37.369  0.00  0.00    +0.000 OA
ATOM     13  CB  VAL S   2     -45.730   2.018 -39.206  0.00  0.00    +0.000 C 
ATOM     14  CG2 VAL S   2     -46.637   3.191 -38.883  0.00  0.00    +0.000 C 
ATOM     15  CG1 VAL S   2     -46.324   1.132 -40.337  0.00  0.00    +0.000 C 
ATOM     16  N   GLN S   3     -43.536   4.581 -38.554  0.00  0.00    +0.000 N 
ATOM     17  CA  GLN S   3     -43.204   5.465 -37.438  0.00  0.00    +0.000 C 
ATOM     18  C   GLN S   3     -44.423   6.300 -37.098  0.00  0.00    +0.000 C 
ATOM     19  O   GLN S   3     -45.137   6.795 -37.999  0.00  0.00    +0.000 OA
ATOM     20  CB  GLN S   3     -41.993   6.358 -37.685  0.00  0.00    +0.000 C 
ATOM     21  CG  GLN S   3     -41.459   6.940 -36.378  0.00  0.00    +0.000 C 
ATOM     22  CD  GLN S   3     -40.460   8.059 -36.497  0.00  0.00    +0.000 C 
ATOM     23  OE1 GLN S   3     -40.670   9.051 -37.214  0.00  0.00    +0.000 OA
ATOM     24  NE2 GLN S   3     -39.379   7.971 -35.765  0.00  0.00    +0.000 N 
ATOM     25  H   LEU S   1     -41.694  -1.622 -42.429  0.00  0.00    +0.000 HD
ATOM     26  H   LEU S   1     -42.130  -0.188 -43.155  0.00  0.00    +0.000 HD
ATOM     27  H   LEU S   1     -43.267  -1.084 -42.330  0.00  0.00    +0.000 HD
ATOM     28  H   VAL S   2     -43.292   0.724 -39.166  0.00  0.00    +0.000 HD
ATOM     29  H   GLN S   3     -43.625   4.977 -39.451  0.00  0.00    +0.000 HD
ATOM     30  H   GLN S   3     -38.696   8.679 -35.808  0.00  0.00    +0.000 HD
ATOM     31  H   GLN S   3     -39.249   7.197 -35.171  0.00  0.00    +0.000 HD
TER 
REMARK  Name = /data/user_data/xianyang/t3-aimnet-affinity-balanced/L2/P31153/pocket.pdb
REMARK                            x       y       z     vdW  Elec       q    Type
REMARK                         _______ _______ _______ _____ _____    ______ ____
ATOM      1  N   SER T   1     -45.172   7.983 -40.603  0.00  0.00    +0.000 N 
ATOM      2  CA  SER T   1     -44.285   7.732 -41.733  0.00  0.00    +0.000 C 
ATOM      3  C   SER T   1     -44.285   6.256 -42.078  0.00  0.00    +0.000 C 
ATOM      4  O   SER T   1     -44.425   5.405 -41.165  0.00  0.00    +0.000 OA
ATOM      5  CB  SER T   1     -42.917   8.200 -41.381  0.00  0.00    +0.000 C 
ATOM      6  OG  SER T   1     -42.970   9.517 -40.879  0.00  0.00    +0.000 OA
ATOM      7  N   ILE T   2     -44.012   5.954 -43.340  0.00  0.00    +0.000 N 
ATOM      8  CA  ILE T   2     -44.061   4.569 -43.857  0.00  0.00    +0.000 C 
ATOM      9  C   ILE T   2     -42.844   4.292 -44.700  0.00  0.00    +0.000 C 
ATOM     10  O   ILE T   2     -42.492   5.102 -45.574  0.00  0.00    +0.000 OA
ATOM     11  CB  ILE T   2     -45.294   4.347 -44.733  0.00  0.00    +0.000 C 
ATOM     12  CG1 ILE T   2     -46.612   4.723 -44.079  0.00  0.00    +0.000 C 
ATOM     13  CG2 ILE T   2     -45.311   2.926 -45.298  0.00  0.00    +0.000 C 
ATOM     14  CD1 ILE T   2     -46.973   3.892 -42.937  0.00  0.00    +0.000 C 
ATOM     15  N   PHE T   3     -42.189   3.177 -44.455  0.00  0.00    +0.000 N 
ATOM     16  CA  PHE T   3     -41.026   2.681 -45.245  0.00  0.00    +0.000 C 
ATOM     17  C   PHE T   3     -41.370   1.271 -45.696  0.00  0.00    +0.000 C 
ATOM     18  O   PHE T   3     -41.519   0.398 -44.837  0.00  0.00    +0.000 OA
ATOM     19  CB  PHE T   3     -39.744   2.791 -44.416  0.00  0.00    +0.000 C 
ATOM     20  CG  PHE T   3     -38.484   2.316 -45.085  0.00  0.00    +0.000 A 
ATOM     21  CD1 PHE T   3     -38.125   2.712 -46.371  0.00  0.00    +0.000 A 
ATOM     22  CD2 PHE T   3     -37.587   1.514 -44.409  0.00  0.00    +0.000 A 
ATOM     23  CE1 PHE T   3     -36.923   2.281 -46.954  0.00  0.00    +0.000 A 
ATOM     24  CE2 PHE T   3     -36.367   1.126 -44.971  0.00  0.00    +0.000 A 
ATOM     25  CZ  PHE T   3     -36.043   1.500 -46.250  0.00  0.00    +0.000 A 
ATOM     26  H   SER T   1     -46.114   7.666 -40.833  0.00  0.00    +0.000 HD
ATOM     27  H   SER T   1     -45.190   8.982 -40.400  0.00  0.00    +0.000 HD
ATOM     28  H   SER T   1     -44.833   7.476 -39.785  0.00  0.00    +0.000 HD
ATOM     29  H   SER T   1     -43.340  10.106 -41.555  0.00  0.00    +0.000 HD
ATOM     30  H   ILE T   2     -43.767   6.681 -43.957  0.00  0.00    +0.000 HD
ATOM     31  H   PHE T   3     -42.489   2.630 -43.694  0.00  0.00    +0.000 HD
TER 
REMARK  Name = /data/user_data/xianyang/t3-aimnet-affinity-balanced/L2/P31153/pocket.pdb
REMARK                            x       y       z     vdW  Elec       q    Type
REMARK                         _______ _______ _______ _____ _____    ______ ____
ATOM      1  N   TYR U   1     -39.546  -0.698 -47.906  0.00  0.00    +0.000 N 
ATOM      2  CA  TYR U   1     -38.353  -1.481 -48.310  0.00  0.00    +0.000 C 
ATOM      3  C   TYR U   1     -38.414  -1.822 -49.799  0.00  0.00    +0.000 C 
ATOM      4  O   TYR U   1     -37.680  -2.742 -50.196  0.00  0.00    +0.000 OA
ATOM      5  CB  TYR U   1     -38.266  -2.781 -47.494  0.00  0.00    +0.000 C 
ATOM      6  CG  TYR U   1     -38.012  -2.553 -46.008  0.00  0.00    +0.000 A 
ATOM      7  CD2 TYR U   1     -39.075  -2.351 -45.142  0.00  0.00    +0.000 A 
ATOM      8  CD1 TYR U   1     -36.739  -2.527 -45.504  0.00  0.00    +0.000 A 
ATOM      9  CE2 TYR U   1     -38.815  -2.150 -43.788  0.00  0.00    +0.000 A 
ATOM     10  CE1 TYR U   1     -36.481  -2.321 -44.165  0.00  0.00    +0.000 A 
ATOM     11  CZ  TYR U   1     -37.543  -2.150 -43.313  0.00  0.00    +0.000 A 
ATOM     12  OH  TYR U   1     -37.306  -1.952 -41.947  0.00  0.00    +0.000 OA
ATOM     13  H   TYR U   1     -39.591   0.161 -48.455  0.00  0.00    +0.000 HD
ATOM     14  H   TYR U   1     -39.480  -0.465 -46.915  0.00  0.00    +0.000 HD
ATOM     15  H   TYR U   1     -40.387  -1.251 -48.070  0.00  0.00    +0.000 HD
ATOM     16  H   TYR U   1     -36.428  -1.952 -41.619  0.00  0.00    +0.000 HD
TER 
REMARK  Name = /data/user_data/xianyang/t3-aimnet-affinity-balanced/L2/P31153/pocket.pdb
REMARK                            x       y       z     vdW  Elec       q    Type
REMARK                         _______ _______ _______ _____ _____    ______ ____
ATOM      1  N   GLU V   1     -44.809   5.056 -50.880  0.00  0.00    +0.000 N 
ATOM      2  CA  GLU V   1     -44.953   5.259 -49.417  0.00  0.00    +0.000 C 
ATOM      3  C   GLU V   1     -45.964   6.375 -49.172  0.00  0.00    +0.000 C 
ATOM      4  O   GLU V   1     -46.789   6.277 -48.229  0.00  0.00    +0.000 OA
ATOM      5  CB  GLU V   1     -43.597   5.541 -48.801  0.00  0.00    +0.000 C 
ATOM      6  CG  GLU V   1     -42.772   4.258 -48.764  0.00  0.00    +0.000 C 
ATOM      7  CD  GLU V   1     -41.271   4.331 -48.872  0.00  0.00    +0.000 C 
ATOM      8  OE1 GLU V   1     -40.760   5.351 -49.439  0.00  0.00    +0.000 OA
ATOM      9  OE2 GLU V   1     -40.554   3.394 -48.508  0.00  0.00    +0.000 OA
ATOM     10  H   GLU V   1     -45.724   4.867 -51.289  0.00  0.00    +0.000 HD
ATOM     11  H   GLU V   1     -44.189   4.265 -51.054  0.00  0.00    +0.000 HD
ATOM     12  H   GLU V   1     -44.415   5.897 -51.303  0.00  0.00    +0.000 HD
TER 
