REMARK  Name = /home/xianyang/aimnet2_score_pipelines/work/L1234-fixed-receptor-eint-20260921/L1/P0C6U8/prepared.pdb
REMARK                            x       y       z     vdW  Elec       q    Type
REMARK                         _______ _______ _______ _____ _____    ______ ____
ATOM      1  CH3 ACE A   1      40.780 -60.616  40.043  0.00  0.00    +0.000 C 
ATOM      2  C   ACE A   1      40.655 -60.176  38.586  0.00  0.00    +0.000 C 
ATOM      3  O   ACE A   1      41.214 -60.832  37.699  0.00  0.00    +0.000 OA
ATOM      4  N   THR A   2      39.945 -59.085  38.318  0.00  0.00    +0.000 N 
ATOM      5  H   THR A   2      39.549 -58.562  39.082  0.00  0.00    +0.000 HD
ATOM      6  CA  THR A   2      39.740 -58.581  36.966  0.00  0.00    +0.000 C 
ATOM      7  C   THR A   2      40.510 -57.279  36.821  0.00  0.00    +0.000 C 
ATOM      8  O   THR A   2      40.287 -56.331  37.580  0.00  0.00    +0.000 OA
ATOM      9  CB  THR A   2      38.253 -58.367  36.675  0.00  0.00    +0.000 C 
ATOM     10  OG1 THR A   2      37.592 -59.637  36.603  0.00  0.00    +0.000 OA
ATOM     11  HG1 THR A   2      36.761 -59.555  37.095  0.00  0.00    +0.000 HD
ATOM     12  CG2 THR A   2      38.059 -57.618  35.365  0.00  0.00    +0.000 C 
ATOM     13  N   THR A   3      41.432 -57.243  35.869  0.00  0.00    +0.000 N 
ATOM     14  H   THR A   3      41.580 -58.058  35.292  0.00  0.00    +0.000 HD
ATOM     15  CA  THR A   3      42.190 -56.042  35.573  0.00  0.00    +0.000 C 
ATOM     16  C   THR A   3      41.880 -55.592  34.150  0.00  0.00    +0.000 C 
ATOM     17  O   THR A   3      41.757 -56.410  33.234  0.00  0.00    +0.000 OA
ATOM     18  CB  THR A   3      43.700 -56.282  35.754  0.00  0.00    +0.000 C 
ATOM     19  OG1 THR A   3      43.987 -56.510  37.142  0.00  0.00    +0.000 OA
ATOM     20  HG1 THR A   3      43.676 -55.754  37.650  0.00  0.00    +0.000 HD
ATOM     21  CG2 THR A   3      44.494 -55.076  35.281  0.00  0.00    +0.000 C 
ATOM     22  N   LEU A   4      41.741 -54.285  33.984  0.00  0.00    +0.000 N 
ATOM     23  H   LEU A   4      41.885 -53.657  34.763  0.00  0.00    +0.000 HD
ATOM     24  CA  LEU A   4      41.606 -53.675  32.674  0.00  0.00    +0.000 C 
ATOM     25  C   LEU A   4      42.092 -52.244  32.796  0.00  0.00    +0.000 C 
ATOM     26  O   LEU A   4      42.548 -51.814  33.861  0.00  0.00    +0.000 OA
ATOM     27  CB  LEU A   4      40.165 -53.754  32.168  0.00  0.00    +0.000 C 
ATOM     28  CG  LEU A   4      39.020 -53.474  33.151  0.00  0.00    +0.000 C 
ATOM     29  CD1 LEU A   4      38.979 -52.014  33.645  0.00  0.00    +0.000 C 
ATOM     30  CD2 LEU A   4      37.719 -53.834  32.474  0.00  0.00    +0.000 C 
ATOM     31  N   ASN A   5      41.953 -51.494  31.706  0.00  0.00    +0.000 N 
ATOM     32  H   ASN A   5      41.497 -51.877  30.887  0.00  0.00    +0.000 HD
ATOM     33  CA  ASN A   5      42.491 -50.147  31.624  0.00  0.00    +0.000 C 
ATOM     34  C   ASN A   5      41.427 -49.102  31.900  0.00  0.00    +0.000 C 
ATOM     35  O   ASN A   5      40.224 -49.322  31.715  0.00  0.00    +0.000 OA
ATOM     36  CB  ASN A   5      43.113 -49.898  30.239  0.00  0.00    +0.000 C 
ATOM     37  CG  ASN A   5      44.049 -51.014  29.822  0.00  0.00    +0.000 C 
ATOM     38  OD1 ASN A   5      45.217 -51.006  30.188  0.00  0.00    +0.000 OA
ATOM     39  ND2 ASN A   5      43.535 -51.991  29.074  0.00  0.00    +0.000 N 
ATOM     40 HD21 ASN A   5      42.546 -51.995  28.860  0.00  0.00    +0.000 HD
ATOM     41 HD22 ASN A   5      44.078 -52.835  28.951  0.00  0.00    +0.000 HD
ATOM     42  N   NME A   6      41.900 -47.928  32.322  0.00  0.00    +0.000 N 
ATOM     43  H   NME A   6      42.892 -47.822  32.466  0.00  0.00    +0.000 HD
ATOM     44  C   NME A   6      41.043 -46.784  32.498  0.00  0.00    +0.000 C 
TER 
REMARK  Name = /home/xianyang/aimnet2_score_pipelines/work/L1234-fixed-receptor-eint-20260921/L1/P0C6U8/prepared.pdb
REMARK                            x       y       z     vdW  Elec       q    Type
REMARK                         _______ _______ _______ _____ _____    ______ ____
ATOM      1  CH3 ACE B   1      34.070 -50.153  31.386  0.00  0.00    +0.000 C 
ATOM      2  C   ACE B   1      33.487 -50.639  32.703  0.00  0.00    +0.000 C 
ATOM      3  O   ACE B   1      34.217 -51.017  33.617  0.00  0.00    +0.000 OA
ATOM      4  N   ARG B   2      32.155 -50.665  32.787  0.00  0.00    +0.000 N 
ATOM      5  H   ARG B   2      31.589 -50.330  32.022  0.00  0.00    +0.000 HD
ATOM      6  CA  ARG B   2      31.561 -51.028  34.067  0.00  0.00    +0.000 C 
ATOM      7  C   ARG B   2      31.695 -52.516  34.340  0.00  0.00    +0.000 C 
ATOM      8  O   ARG B   2      31.650 -52.920  35.502  0.00  0.00    +0.000 OA
ATOM      9  CB  ARG B   2      30.109 -50.549  34.134  0.00  0.00    +0.000 C 
ATOM     10  CG  ARG B   2      29.123 -51.324  33.294  0.00  0.00    +0.000 C 
ATOM     11  CD  ARG B   2      27.734 -50.707  33.364  0.00  0.00    +0.000 C 
ATOM     12  NE  ARG B   2      26.836 -51.391  32.434  0.00  0.00    +0.000 N 
ATOM     13  HE  ARG B   2      27.261 -51.976  31.705  0.00  0.00    +0.000 HD
ATOM     14  CZ  ARG B   2      25.512 -51.293  32.457  0.00  0.00    +0.000 C 
ATOM     15  NH1 ARG B   2      24.917 -50.542  33.383  0.00  0.00    +0.000 N 
ATOM     16 HH11 ARG B   2      23.913 -50.474  33.448  0.00  0.00    +0.000 HD
ATOM     17 HH12 ARG B   2      25.483 -50.072  34.060  0.00  0.00    +0.000 HD
ATOM     18  NH2 ARG B   2      24.788 -51.965  31.568  0.00  0.00    +0.000 N 
ATOM     19 HH21 ARG B   2      25.281 -52.599  30.925  0.00  0.00    +0.000 HD
ATOM     20 HH22 ARG B   2      23.786 -51.955  31.616  0.00  0.00    +0.000 HD
ATOM     21  N   HIS B   3      31.978 -53.324  33.320  0.00  0.00    +0.000 N 
ATOM     22  H   HIS B   3      32.063 -52.946  32.391  0.00  0.00    +0.000 HD
ATOM     23  CA  HIS B   3      32.066 -54.763  33.538  0.00  0.00    +0.000 C 
ATOM     24  C   HIS B   3      33.305 -55.188  34.312  0.00  0.00    +0.000 C 
ATOM     25  O   HIS B   3      33.483 -56.394  34.528  0.00  0.00    +0.000 OA
ATOM     26  CB  HIS B   3      31.981 -55.529  32.208  0.00  0.00    +0.000 C 
ATOM     27  CG  HIS B   3      33.182 -55.393  31.301  0.00  0.00    +0.000 A 
ATOM     28  ND1 HIS B   3      34.464 -55.724  31.689  0.00  0.00    +0.000 NA
ATOM     29  CD2 HIS B   3      33.269 -55.044  29.993  0.00  0.00    +0.000 A 
ATOM     30  CE1 HIS B   3      35.295 -55.549  30.669  0.00  0.00    +0.000 A 
ATOM     31  NE2 HIS B   3      34.596 -55.133  29.628  0.00  0.00    +0.000 N 
ATOM     32  HE2 HIS B   3      34.954 -55.113  28.676  0.00  0.00    +0.000 HD
ATOM     33  N   VAL B   4      34.161 -54.255  34.729  0.00  0.00    +0.000 N 
ATOM     34  H   VAL B   4      34.041 -53.292  34.446  0.00  0.00    +0.000 HD
ATOM     35  CA  VAL B   4      35.241 -54.605  35.651  0.00  0.00    +0.000 C 
ATOM     36  C   VAL B   4      34.682 -55.095  36.992  0.00  0.00    +0.000 C 
ATOM     37  O   VAL B   4      35.328 -55.888  37.690  0.00  0.00    +0.000 OA
ATOM     38  CB  VAL B   4      36.196 -53.404  35.830  0.00  0.00    +0.000 C 
ATOM     39  CG1 VAL B   4      35.513 -52.257  36.556  0.00  0.00    +0.000 C 
ATOM     40  CG2 VAL B   4      37.486 -53.828  36.526  0.00  0.00    +0.000 C 
ATOM     41  N   ILE B   5      33.475 -54.665  37.362  0.00  0.00    +0.000 N 
ATOM     42  H   ILE B   5      32.970 -54.015  36.772  0.00  0.00    +0.000 HD
ATOM     43  CA  ILE B   5      32.894 -55.066  38.644  0.00  0.00    +0.000 C 
ATOM     44  C   ILE B   5      32.149 -56.384  38.541  0.00  0.00    +0.000 C 
ATOM     45  O   ILE B   5      31.450 -56.772  39.482  0.00  0.00    +0.000 OA
ATOM     46  CB  ILE B   5      31.941 -54.003  39.200  0.00  0.00    +0.000 C 
ATOM     47  CG1 ILE B   5      30.615 -54.029  38.434  0.00  0.00    +0.000 C 
ATOM     48  CG2 ILE B   5      32.585 -52.633  39.151  0.00  0.00    +0.000 C 
ATOM     49  CD1 ILE B   5      29.626 -52.994  38.925  0.00  0.00    +0.000 C 
ATOM     50  N   CYS B   6      32.249 -57.068  37.404  0.00  0.00    +0.000 N 
ATOM     51  H   CYS B   6      32.914 -56.775  36.703  0.00  0.00    +0.000 HD
ATOM     52  CA  CYS B   6      31.690 -58.409  37.323  0.00  0.00    +0.000 C 
ATOM     53  C   CYS B   6      32.685 -59.417  37.884  0.00  0.00    +0.000 C 
ATOM     54  O   CYS B   6      33.904 -59.230  37.805  0.00  0.00    +0.000 OA
ATOM     55  CB  CYS B   6      31.341 -58.781  35.881  0.00  0.00    +0.000 C 
ATOM     56  SG  CYS B   6      30.352 -57.569  34.971  0.00  0.00    +0.000 S 
ATOM     57  HG  CYS B   6      31.412 -56.760  34.815  0.00  0.00    +0.000 HD
ATOM     58  N   THR B   7      32.159 -60.479  38.483  0.00  0.00    +0.000 N 
ATOM     59  H   THR B   7      31.174 -60.524  38.746  0.00  0.00    +0.000 HD
ATOM     60  CA  THR B   7      32.953 -61.675  38.701  0.00  0.00    +0.000 C 
ATOM     61  C   THR B   7      32.599 -62.669  37.603  0.00  0.00    +0.000 C 
ATOM     62  O   THR B   7      31.694 -62.432  36.798  0.00  0.00    +0.000 OA
ATOM     63  CB  THR B   7      32.724 -62.267  40.094  0.00  0.00    +0.000 C 
ATOM     64  OG1 THR B   7      31.439 -62.899  40.140  0.00  0.00    +0.000 OA
ATOM     65  HG1 THR B   7      30.688 -62.310  40.393  0.00  0.00    +0.000 HD
ATOM     66  CG2 THR B   7      32.806 -61.182  41.167  0.00  0.00    +0.000 C 
ATOM     67  N   ALA B   8      33.334 -63.786  37.557  0.00  0.00    +0.000 N 
ATOM     68  H   ALA B   8      33.987 -63.979  38.294  0.00  0.00    +0.000 HD
ATOM     69  CA  ALA B   8      33.089 -64.779  36.516  0.00  0.00    +0.000 C 
ATOM     70  C   ALA B   8      31.639 -65.238  36.526  0.00  0.00    +0.000 C 
ATOM     71  O   ALA B   8      31.072 -65.521  35.465  0.00  0.00    +0.000 OA
ATOM     72  CB  ALA B   8      34.032 -65.973  36.684  0.00  0.00    +0.000 C 
ATOM     73  N   GLU B   9      31.018 -65.292  37.709  0.00  0.00    +0.000 N 
ATOM     74  H   GLU B   9      31.514 -64.994  38.534  0.00  0.00    +0.000 HD
ATOM     75  CA  GLU B   9      29.619 -65.689  37.814  0.00  0.00    +0.000 C 
ATOM     76  C   GLU B   9      28.651 -64.562  37.460  0.00  0.00    +0.000 C 
ATOM     77  O   GLU B   9      27.496 -64.843  37.121  0.00  0.00    +0.000 OA
ATOM     78  CB  GLU B   9      29.325 -66.204  39.226  0.00  0.00    +0.000 C 
ATOM     79  CG  GLU B   9      29.729 -65.424  40.534  0.00  0.00    +0.000 C 
ATOM     80  CD  GLU B   9      29.947 -63.878  40.311  0.00  0.00    +0.000 C 
ATOM     81  OE1 GLU B   9      30.598 -63.909  39.213  0.00  0.00    +0.000 OA
ATOM     82  OE2 GLU B   9      29.544 -62.904  41.116  0.00  0.00    +0.000 OA
ATOM     83  N   ASP B  10      29.086 -63.301  37.528  0.00  0.00    +0.000 N 
ATOM     84  H   ASP B  10      30.014 -63.127  37.905  0.00  0.00    +0.000 HD
ATOM     85  CA  ASP B  10      28.213 -62.176  37.208  0.00  0.00    +0.000 C 
ATOM     86  C   ASP B  10      28.188 -61.831  35.726  0.00  0.00    +0.000 C 
ATOM     87  O   ASP B  10      27.235 -61.183  35.276  0.00  0.00    +0.000 OA
ATOM     88  CB  ASP B  10      28.630 -60.919  37.982  0.00  0.00    +0.000 C 
ATOM     89  CG  ASP B  10      28.778 -61.164  39.473  0.00  0.00    +0.000 C 
ATOM     90  OD1 ASP B  10      27.802 -61.641  40.097  0.00  0.00    +0.000 OA
ATOM     91  OD2 ASP B  10      29.862 -60.858  40.021  0.00  0.00    +0.000 OA
ATOM     92  N   MET B  11      29.206 -62.236  34.959  0.00  0.00    +0.000 N 
ATOM     93  H   MET B  11      29.986 -62.706  35.415  0.00  0.00    +0.000 HD
ATOM     94  CA  MET B  11      29.277 -61.841  33.557  0.00  0.00    +0.000 C 
ATOM     95  C   MET B  11      28.103 -62.384  32.745  0.00  0.00    +0.000 C 
ATOM     96  O   MET B  11      27.782 -61.825  31.691  0.00  0.00    +0.000 OA
ATOM     97  CB  MET B  11      30.624 -62.286  32.949  0.00  0.00    +0.000 C 
ATOM     98  CG  MET B  11      30.763 -63.789  32.685  0.00  0.00    +0.000 C 
ATOM     99  SD  MET B  11      32.472 -64.327  32.388  0.00  0.00    +0.000 S 
ATOM    100  CE  MET B  11      32.285 -66.115  32.490  0.00  0.00    +0.000 C 
ATOM    101  N   LEU B  12      27.425 -63.431  33.221  0.00  0.00    +0.000 N 
ATOM    102  H   LEU B  12      27.695 -63.832  34.111  0.00  0.00    +0.000 HD
ATOM    103  CA  LEU B  12      26.406 -64.064  32.387  0.00  0.00    +0.000 C 
ATOM    104  C   LEU B  12      25.105 -63.259  32.345  0.00  0.00    +0.000 C 
ATOM    105  O   LEU B  12      24.408 -63.268  31.324  0.00  0.00    +0.000 OA
ATOM    106  CB  LEU B  12      26.161 -65.494  32.874  0.00  0.00    +0.000 C 
ATOM    107  CG  LEU B  12      25.366 -66.445  31.974  0.00  0.00    +0.000 C 
ATOM    108  CD1 LEU B  12      23.868 -66.356  32.243  0.00  0.00    +0.000 C 
ATOM    109  CD2 LEU B  12      25.673 -66.177  30.504  0.00  0.00    +0.000 C 
ATOM    110  N   ASN B  13      24.763 -62.554  33.423  0.00  0.00    +0.000 N 
ATOM    111  H   ASN B  13      25.404 -62.514  34.208  0.00  0.00    +0.000 HD
ATOM    112  CA  ASN B  13      23.538 -61.755  33.464  0.00  0.00    +0.000 C 
ATOM    113  C   ASN B  13      23.642 -60.678  34.542  0.00  0.00    +0.000 C 
ATOM    114  O   ASN B  13      22.885 -60.698  35.524  0.00  0.00    +0.000 OA
ATOM    115  CB  ASN B  13      22.322 -62.649  33.719  0.00  0.00    +0.000 C 
ATOM    116  CG  ASN B  13      21.816 -63.667  32.585  0.00  0.00    +0.000 C 
ATOM    117  OD1 ASN B  13      20.579 -63.844  32.234  0.00  0.00    +0.000 OA
ATOM    118  ND2 ASN B  13      22.625 -64.361  31.933  0.00  0.00    +0.000 N 
ATOM    119 HD21 ASN B  13      22.228 -64.947  31.232  0.00  0.00    +0.000 HD
ATOM    120 HD22 ASN B  13      23.585 -64.410  32.165  0.00  0.00    +0.000 HD
ATOM    121  N   PRO B  14      24.546 -59.711  34.379  0.00  0.00    +0.000 N 
ATOM    122  CA  PRO B  14      24.853 -58.788  35.478  0.00  0.00    +0.000 C 
ATOM    123  C   PRO B  14      23.753 -57.769  35.732  0.00  0.00    +0.000 C 
ATOM    124  O   PRO B  14      23.112 -57.261  34.813  0.00  0.00    +0.000 OA
ATOM    125  CB  PRO B  14      26.136 -58.094  35.005  0.00  0.00    +0.000 C 
ATOM    126  CG  PRO B  14      26.072 -58.173  33.509  0.00  0.00    +0.000 C 
ATOM    127  CD  PRO B  14      25.337 -59.426  33.166  0.00  0.00    +0.000 C 
ATOM    128  N   ASN B  15      23.544 -57.473  37.010  0.00  0.00    +0.000 N 
ATOM    129  H   ASN B  15      24.094 -57.955  37.707  0.00  0.00    +0.000 HD
ATOM    130  CA  ASN B  15      22.697 -56.373  37.458  0.00  0.00    +0.000 C 
ATOM    131  C   ASN B  15      23.647 -55.295  37.974  0.00  0.00    +0.000 C 
ATOM    132  O   ASN B  15      24.053 -55.300  39.140  0.00  0.00    +0.000 OA
ATOM    133  CB  ASN B  15      21.701 -56.830  38.520  0.00  0.00    +0.000 C 
ATOM    134  CG  ASN B  15      20.691 -55.765  38.852  0.00  0.00    +0.000 C 
ATOM    135  OD1 ASN B  15      21.041 -54.604  39.069  0.00  0.00    +0.000 OA
ATOM    136  ND2 ASN B  15      19.420 -56.142  38.866  0.00  0.00    +0.000 N 
ATOM    137 HD21 ASN B  15      18.773 -55.394  39.046  0.00  0.00    +0.000 HD
ATOM    138 HD22 ASN B  15      19.158 -57.101  38.742  0.00  0.00    +0.000 HD
ATOM    139  N   TYR B  16      24.010 -54.368  37.084  0.00  0.00    +0.000 N 
ATOM    140  H   TYR B  16      23.588 -54.356  36.169  0.00  0.00    +0.000 HD
ATOM    141  CA  TYR B  16      25.146 -53.497  37.364  0.00  0.00    +0.000 C 
ATOM    142  C   TYR B  16      24.853 -52.527  38.499  0.00  0.00    +0.000 C 
ATOM    143  O   TYR B  16      25.761 -52.184  39.266  0.00  0.00    +0.000 OA
ATOM    144  CB  TYR B  16      25.560 -52.738  36.105  0.00  0.00    +0.000 C 
ATOM    145  CG  TYR B  16      26.370 -53.589  35.172  0.00  0.00    +0.000 A 
ATOM    146  CD1 TYR B  16      27.711 -53.860  35.436  0.00  0.00    +0.000 A 
ATOM    147  CD2 TYR B  16      25.794 -54.148  34.042  0.00  0.00    +0.000 A 
ATOM    148  CE1 TYR B  16      28.458 -54.656  34.586  0.00  0.00    +0.000 A 
ATOM    149  CE2 TYR B  16      26.532 -54.935  33.179  0.00  0.00    +0.000 A 
ATOM    150  CZ  TYR B  16      27.862 -55.190  33.456  0.00  0.00    +0.000 A 
ATOM    151  OH  TYR B  16      28.588 -55.987  32.606  0.00  0.00    +0.000 OA
ATOM    152  HH  TYR B  16      29.115 -56.633  33.086  0.00  0.00    +0.000 HD
ATOM    153  N   GLU B  17      23.611 -52.051  38.603  0.00  0.00    +0.000 N 
ATOM    154  H   GLU B  17      22.879 -52.327  37.948  0.00  0.00    +0.000 HD
ATOM    155  CA  GLU B  17      23.250 -51.206  39.732  0.00  0.00    +0.000 C 
ATOM    156  C   GLU B  17      23.328 -51.991  41.037  0.00  0.00    +0.000 C 
ATOM    157  O   GLU B  17      23.732 -51.441  42.070  0.00  0.00    +0.000 OA
ATOM    158  CB  GLU B  17      21.857 -50.613  39.508  0.00  0.00    +0.000 C 
ATOM    159  CG  GLU B  17      21.749 -49.727  38.254  0.00  0.00    +0.000 C 
ATOM    160  CD  GLU B  17      21.581 -50.516  36.946  0.00  0.00    +0.000 C 
ATOM    161  OE1 GLU B  17      21.530 -49.875  35.865  0.00  0.00    +0.000 OA
ATOM    162  OE2 GLU B  17      21.512 -51.769  36.994  0.00  0.00    +0.000 OA
ATOM    163  N   NME B  18      22.997 -53.284  40.998  0.00  0.00    +0.000 N 
ATOM    164  H   NME B  18      22.689 -53.691  40.120  0.00  0.00    +0.000 HD
ATOM    165  C   NME B  18      23.184 -54.131  42.170  0.00  0.00    +0.000 C 
TER 
REMARK  Name = /home/xianyang/aimnet2_score_pipelines/work/L1234-fixed-receptor-eint-20260921/L1/P0C6U8/prepared.pdb
REMARK                            x       y       z     vdW  Elec       q    Type
REMARK                         _______ _______ _______ _____ _____    ______ ____
ATOM      1  CH3 ACE C   1      40.463 -54.244  16.014  0.00  0.00    +0.000 C 
ATOM      2  C   ACE C   1      41.379 -55.438  16.205  0.00  0.00    +0.000 C 
ATOM      3  O   ACE C   1      41.151 -56.533  15.698  0.00  0.00    +0.000 OA
ATOM      4  N   SER C   2      42.447 -55.186  16.950  0.00  0.00    +0.000 N 
ATOM      5  H   SER C   2      42.533 -54.260  17.339  0.00  0.00    +0.000 HD
ATOM      6  CA  SER C   2      43.422 -56.185  17.382  0.00  0.00    +0.000 C 
ATOM      7  C   SER C   2      43.497 -56.038  18.903  0.00  0.00    +0.000 C 
ATOM      8  O   SER C   2      44.292 -55.259  19.433  0.00  0.00    +0.000 OA
ATOM      9  CB  SER C   2      44.790 -55.967  16.691  0.00  0.00    +0.000 C 
ATOM     10  OG  SER C   2      45.758 -56.911  17.136  0.00  0.00    +0.000 OA
ATOM     11  HG  SER C   2      46.047 -56.641  18.016  0.00  0.00    +0.000 HD
ATOM     12  N   PHE C   3      42.635 -56.757  19.606  0.00  0.00    +0.000 N 
ATOM     13  H   PHE C   3      41.998 -57.386  19.137  0.00  0.00    +0.000 HD
ATOM     14  CA  PHE C   3      42.518 -56.636  21.055  0.00  0.00    +0.000 C 
ATOM     15  C   PHE C   3      42.695 -58.007  21.692  0.00  0.00    +0.000 C 
ATOM     16  O   PHE C   3      42.024 -58.972  21.299  0.00  0.00    +0.000 OA
ATOM     17  CB  PHE C   3      41.159 -56.072  21.466  0.00  0.00    +0.000 C 
ATOM     18  CG  PHE C   3      40.935 -54.627  21.112  0.00  0.00    +0.000 A 
ATOM     19  CD1 PHE C   3      41.705 -53.620  21.671  0.00  0.00    +0.000 A 
ATOM     20  CD2 PHE C   3      39.917 -54.278  20.243  0.00  0.00    +0.000 A 
ATOM     21  CE1 PHE C   3      41.464 -52.297  21.358  0.00  0.00    +0.000 A 
ATOM     22  CE2 PHE C   3      39.676 -52.960  19.925  0.00  0.00    +0.000 A 
ATOM     23  CZ  PHE C   3      40.445 -51.962  20.493  0.00  0.00    +0.000 A 
ATOM     24  N   LEU C   4      43.579 -58.086  22.677  0.00  0.00    +0.000 N 
ATOM     25  H   LEU C   4      44.085 -57.258  22.943  0.00  0.00    +0.000 HD
ATOM     26  CA  LEU C   4      43.827 -59.320  23.402  0.00  0.00    +0.000 C 
ATOM     27  C   LEU C   4      43.173 -59.234  24.774  0.00  0.00    +0.000 C 
ATOM     28  O   LEU C   4      42.535 -58.235  25.110  0.00  0.00    +0.000 OA
ATOM     29  CB  LEU C   4      45.329 -59.571  23.528  0.00  0.00    +0.000 C 
ATOM     30  CG  LEU C   4      46.051 -59.937  22.229  0.00  0.00    +0.000 C 
ATOM     31  CD1 LEU C   4      47.537 -60.190  22.497  0.00  0.00    +0.000 C 
ATOM     32  CD2 LEU C   4      45.383 -61.131  21.617  0.00  0.00    +0.000 C 
ATOM     33  N   ASN C   5      43.339 -60.298  25.560  0.00  0.00    +0.000 N 
ATOM     34  H   ASN C   5      43.845 -61.094  25.210  0.00  0.00    +0.000 HD
ATOM     35  CA  ASN C   5      42.921 -60.277  26.961  0.00  0.00    +0.000 C 
ATOM     36  C   ASN C   5      43.559 -59.104  27.682  0.00  0.00    +0.000 C 
ATOM     37  O   ASN C   5      44.770 -58.893  27.588  0.00  0.00    +0.000 OA
ATOM     38  CB  ASN C   5      43.320 -61.569  27.660  0.00  0.00    +0.000 C 
ATOM     39  CG  ASN C   5      42.302 -62.669  27.468  0.00  0.00    +0.000 C 
ATOM     40  OD1 ASN C   5      41.107 -62.403  27.302  0.00  0.00    +0.000 OA
ATOM     41  ND2 ASN C   5      42.765 -63.917  27.495  0.00  0.00    +0.000 N 
ATOM     42 HD21 ASN C   5      42.091 -64.644  27.335  0.00  0.00    +0.000 HD
ATOM     43 HD22 ASN C   5      43.736 -64.104  27.665  0.00  0.00    +0.000 HD
ATOM     44  N   GLY C   6      42.747 -58.335  28.395  0.00  0.00    +0.000 N 
ATOM     45  H   GLY C   6      41.768 -58.573  28.448  0.00  0.00    +0.000 HD
ATOM     46  CA  GLY C   6      43.234 -57.183  29.117  0.00  0.00    +0.000 C 
ATOM     47  C   GLY C   6      43.156 -55.872  28.368  0.00  0.00    +0.000 C 
ATOM     48  O   GLY C   6      43.537 -54.832  28.917  0.00  0.00    +0.000 OA
ATOM     49  N   SER C   7      42.655 -55.875  27.150  0.00  0.00    +0.000 N 
ATOM     50  H   SER C   7      42.389 -56.744  26.705  0.00  0.00    +0.000 HD
ATOM     51  CA  SER C   7      42.657 -54.652  26.373  0.00  0.00    +0.000 C 
ATOM     52  C   SER C   7      41.495 -53.736  26.709  0.00  0.00    +0.000 C 
ATOM     53  O   SER C   7      41.536 -52.552  26.354  0.00  0.00    +0.000 OA
ATOM     54  CB  SER C   7      42.653 -54.989  24.874  0.00  0.00    +0.000 C 
ATOM     55  OG  SER C   7      41.513 -55.750  24.532  0.00  0.00    +0.000 OA
ATOM     56  HG  SER C   7      41.696 -56.688  24.634  0.00  0.00    +0.000 HD
ATOM     57  N   CYS C   8      40.475 -54.231  27.419  0.00  0.00    +0.000 N 
ATOM     58  H   CYS C   8      40.465 -55.208  27.650  0.00  0.00    +0.000 HD
ATOM     59  CA  CYS C   8      39.320 -53.400  27.703  0.00  0.00    +0.000 C 
ATOM     60  C   CYS C   8      39.756 -52.109  28.373  0.00  0.00    +0.000 C 
ATOM     61  O   CYS C   8      40.721 -52.069  29.142  0.00  0.00    +0.000 OA
ATOM     62  CB  CYS C   8      38.297 -54.156  28.575  0.00  0.00    +0.000 C 
ATOM     63  SG  CYS C   8      37.627 -55.603  27.774  0.00  0.00    +0.000 S 
ATOM     64  HG  CYS C   8      38.674 -56.421  27.910  0.00  0.00    +0.000 HD
ATOM     65  N   GLY C   9      39.065 -51.029  28.044  0.00  0.00    +0.000 N 
ATOM     66  H   GLY C   9      38.243 -51.118  27.454  0.00  0.00    +0.000 HD
ATOM     67  CA  GLY C   9      39.446 -49.741  28.519  0.00  0.00    +0.000 C 
ATOM     68  C   GLY C   9      40.364 -48.972  27.583  0.00  0.00    +0.000 C 
ATOM     69  O   GLY C   9      40.458 -47.745  27.689  0.00  0.00    +0.000 OA
ATOM     70  N   SER C  10      41.050 -49.657  26.676  0.00  0.00    +0.000 N 
ATOM     71  H   SER C  10      41.020 -50.672  26.646  0.00  0.00    +0.000 HD
ATOM     72  CA  SER C  10      41.818 -48.940  25.659  0.00  0.00    +0.000 C 
ATOM     73  C   SER C  10      40.907 -47.982  24.904  0.00  0.00    +0.000 C 
ATOM     74  O   SER C  10      39.707 -48.246  24.737  0.00  0.00    +0.000 OA
ATOM     75  CB  SER C  10      42.458 -49.921  24.691  0.00  0.00    +0.000 C 
ATOM     76  OG  SER C  10      43.257 -50.852  25.391  0.00  0.00    +0.000 OA
ATOM     77  HG  SER C  10      43.837 -50.401  26.006  0.00  0.00    +0.000 HD
ATOM     78  N   NME C  11      41.462 -46.849  24.472  0.00  0.00    +0.000 N 
ATOM     79  H   NME C  11      42.428 -46.650  24.675  0.00  0.00    +0.000 HD
ATOM     80  C   NME C  11      40.637 -45.829  23.843  0.00  0.00    +0.000 C 
TER 
REMARK  Name = /home/xianyang/aimnet2_score_pipelines/work/L1234-fixed-receptor-eint-20260921/L1/P0C6U8/prepared.pdb
REMARK                            x       y       z     vdW  Elec       q    Type
REMARK                         _______ _______ _______ _____ _____    ______ ____
ATOM      1  CH3 ACE D   1      35.827 -45.299  21.685  0.00  0.00    +0.000 C 
ATOM      2  C   ACE D   1      36.514 -45.721  22.960  0.00  0.00    +0.000 C 
ATOM      3  O   ACE D   1      37.611 -45.237  23.275  0.00  0.00    +0.000 OA
ATOM      4  N   MET D   2      35.866 -46.621  23.683  0.00  0.00    +0.000 N 
ATOM      5  H   MET D   2      34.962 -46.944  23.375  0.00  0.00    +0.000 HD
ATOM      6  CA  MET D   2      36.513 -47.365  24.750  0.00  0.00    +0.000 C 
ATOM      7  C   MET D   2      36.162 -48.821  24.516  0.00  0.00    +0.000 C 
ATOM      8  O   MET D   2      34.992 -49.144  24.299  0.00  0.00    +0.000 OA
ATOM      9  CB  MET D   2      36.064 -46.875  26.135  0.00  0.00    +0.000 C 
ATOM     10  CG  MET D   2      36.753 -47.605  27.283  0.00  0.00    +0.000 C 
ATOM     11  SD  MET D   2      36.617 -46.810  28.910  0.00  0.00    +0.000 S 
ATOM     12  CE  MET D   2      38.104 -45.817  29.075  0.00  0.00    +0.000 C 
ATOM     13  N   HIS D   3      37.156 -49.694  24.559  0.00  0.00    +0.000 N 
ATOM     14  H   HIS D   3      38.099 -49.350  24.721  0.00  0.00    +0.000 HD
ATOM     15  CA  HIS D   3      36.947 -51.100  24.218  0.00  0.00    +0.000 C 
ATOM     16  C   HIS D   3      36.251 -51.865  25.341  0.00  0.00    +0.000 C 
ATOM     17  O   HIS D   3      36.622 -51.738  26.505  0.00  0.00    +0.000 OA
ATOM     18  CB  HIS D   3      38.286 -51.752  23.912  0.00  0.00    +0.000 C 
ATOM     19  CG  HIS D   3      38.183 -53.176  23.494  0.00  0.00    +0.000 A 
ATOM     20  ND1 HIS D   3      37.214 -53.622  22.622  0.00  0.00    +0.000 N 
ATOM     21  HD1 HIS D   3      36.579 -53.045  22.096  0.00  0.00    +0.000 HD
ATOM     22  CD2 HIS D   3      38.930 -54.256  23.815  0.00  0.00    +0.000 A 
ATOM     23  CE1 HIS D   3      37.365 -54.920  22.430  0.00  0.00    +0.000 A 
ATOM     24  NE2 HIS D   3      38.395 -55.331  23.146  0.00  0.00    +0.000 NA
ATOM     25  N   HIS D   4      35.253 -52.687  24.981  0.00  0.00    +0.000 N 
ATOM     26  H   HIS D   4      34.966 -52.738  24.014  0.00  0.00    +0.000 HD
ATOM     27  CA  HIS D   4      34.574 -53.537  25.959  0.00  0.00    +0.000 C 
ATOM     28  C   HIS D   4      34.678 -55.022  25.658  0.00  0.00    +0.000 C 
ATOM     29  O   HIS D   4      34.837 -55.820  26.590  0.00  0.00    +0.000 OA
ATOM     30  CB  HIS D   4      33.092 -53.193  26.065  0.00  0.00    +0.000 C 
ATOM     31  CG  HIS D   4      32.812 -51.893  26.746  0.00  0.00    +0.000 A 
ATOM     32  ND1 HIS D   4      32.019 -51.793  27.876  0.00  0.00    +0.000 N 
ATOM     33  HD1 HIS D   4      31.488 -52.542  28.293  0.00  0.00    +0.000 HD
ATOM     34  CD2 HIS D   4      33.203 -50.635  26.448  0.00  0.00    +0.000 A 
ATOM     35  CE1 HIS D   4      31.941 -50.525  28.242  0.00  0.00    +0.000 A 
ATOM     36  NE2 HIS D   4      32.660 -49.804  27.397  0.00  0.00    +0.000 NA
ATOM     37  N   MET D   5      34.569 -55.435  24.396  0.00  0.00    +0.000 N 
ATOM     38  H   MET D   5      34.418 -54.778  23.639  0.00  0.00    +0.000 HD
ATOM     39  CA  MET D   5      34.403 -56.860  24.146  0.00  0.00    +0.000 C 
ATOM     40  C   MET D   5      34.709 -57.207  22.699  0.00  0.00    +0.000 C 
ATOM     41  O   MET D   5      34.759 -56.339  21.821  0.00  0.00    +0.000 OA
ATOM     42  CB  MET D   5      32.977 -57.328  24.495  0.00  0.00    +0.000 C 
ATOM     43  CG  MET D   5      31.872 -56.672  23.689  0.00  0.00    +0.000 C 
ATOM     44  SD  MET D   5      30.231 -56.877  24.460  0.00  0.00    +0.000 S 
ATOM     45  CE  MET D   5      30.204 -58.666  24.574  0.00  0.00    +0.000 C 
ATOM     46  N   GLU D   6      34.895 -58.507  22.479  0.00  0.00    +0.000 N 
ATOM     47  H   GLU D   6      34.838 -59.146  23.257  0.00  0.00    +0.000 HD
ATOM     48  CA  GLU D   6      35.045 -59.121  21.165  0.00  0.00    +0.000 C 
ATOM     49  C   GLU D   6      33.823 -59.985  20.875  0.00  0.00    +0.000 C 
ATOM     50  O   GLU D   6      33.389 -60.765  21.735  0.00  0.00    +0.000 OA
ATOM     51  CB  GLU D   6      36.317 -59.973  21.124  0.00  0.00    +0.000 C 
ATOM     52  CG  GLU D   6      36.499 -60.827  19.889  0.00  0.00    +0.000 C 
ATOM     53  CD  GLU D   6      37.947 -61.230  19.680  0.00  0.00    +0.000 C 
ATOM     54  OE1 GLU D   6      38.188 -62.362  19.208  0.00  0.00    +0.000 OA
ATOM     55  OE2 GLU D   6      38.853 -60.408  19.978  0.00  0.00    +0.000 OA
ATOM     56  N   LEU D   7      33.258 -59.838  19.682  0.00  0.00    +0.000 N 
ATOM     57  H   LEU D   7      33.755 -59.301  18.980  0.00  0.00    +0.000 HD
ATOM     58  CA  LEU D   7      32.107 -60.646  19.287  0.00  0.00    +0.000 C 
ATOM     59  C   LEU D   7      32.583 -61.990  18.760  0.00  0.00    +0.000 C 
ATOM     60  O   LEU D   7      33.775 -62.178  18.493  0.00  0.00    +0.000 OA
ATOM     61  CB  LEU D   7      31.273 -59.903  18.248  0.00  0.00    +0.000 C 
ATOM     62  CG  LEU D   7      30.695 -58.579  18.736  0.00  0.00    +0.000 C 
ATOM     63  CD1 LEU D   7      29.820 -57.945  17.668  0.00  0.00    +0.000 C 
ATOM     64  CD2 LEU D   7      29.909 -58.800  20.024  0.00  0.00    +0.000 C 
ATOM     65  N   PRO D   8      31.681 -62.972  18.651  0.00  0.00    +0.000 N 
ATOM     66  CA  PRO D   8      32.123 -64.303  18.202  0.00  0.00    +0.000 C 
ATOM     67  C   PRO D   8      32.820 -64.286  16.853  0.00  0.00    +0.000 C 
ATOM     68  O   PRO D   8      33.690 -65.132  16.603  0.00  0.00    +0.000 OA
ATOM     69  CB  PRO D   8      30.820 -65.126  18.166  0.00  0.00    +0.000 C 
ATOM     70  CG  PRO D   8      29.729 -64.255  18.789  0.00  0.00    +0.000 C 
ATOM     71  CD  PRO D   8      30.383 -63.028  19.357  0.00  0.00    +0.000 C 
ATOM     72  N   THR D   9      32.482 -63.337  15.983  0.00  0.00    +0.000 N 
ATOM     73  H   THR D   9      31.777 -62.658  16.224  0.00  0.00    +0.000 HD
ATOM     74  CA  THR D   9      33.085 -63.266  14.659  0.00  0.00    +0.000 C 
ATOM     75  C   THR D   9      34.457 -62.620  14.651  0.00  0.00    +0.000 C 
ATOM     76  O   THR D   9      35.002 -62.406  13.564  0.00  0.00    +0.000 OA
ATOM     77  CB  THR D   9      32.172 -62.500  13.705  0.00  0.00    +0.000 C 
ATOM     78  OG1 THR D   9      31.693 -61.313  14.354  0.00  0.00    +0.000 OA
ATOM     79  HG1 THR D   9      32.257 -60.588  14.060  0.00  0.00    +0.000 HD
ATOM     80  CG2 THR D   9      31.002 -63.380  13.289  0.00  0.00    +0.000 C 
ATOM     81  N   GLY D  10      35.026 -62.291  15.815  0.00  0.00    +0.000 N 
ATOM     82  H   GLY D  10      34.578 -62.526  16.696  0.00  0.00    +0.000 HD
ATOM     83  CA  GLY D  10      36.349 -61.709  15.871  0.00  0.00    +0.000 C 
ATOM     84  C   GLY D  10      36.395 -60.200  15.794  0.00  0.00    +0.000 C 
ATOM     85  O   GLY D  10      37.463 -59.622  16.018  0.00  0.00    +0.000 OA
ATOM     86  N   VAL D  11      35.285 -59.535  15.478  0.00  0.00    +0.000 N 
ATOM     87  H   VAL D  11      34.437 -60.059  15.362  0.00  0.00    +0.000 HD
ATOM     88  CA  VAL D  11      35.270 -58.076  15.501  0.00  0.00    +0.000 C 
ATOM     89  C   VAL D  11      34.987 -57.600  16.924  0.00  0.00    +0.000 C 
ATOM     90  O   VAL D  11      34.784 -58.413  17.835  0.00  0.00    +0.000 OA
ATOM     91  CB  VAL D  11      34.256 -57.501  14.495  0.00  0.00    +0.000 C 
ATOM     92  CG1 VAL D  11      34.731 -57.749  13.083  0.00  0.00    +0.000 C 
ATOM     93  CG2 VAL D  11      32.872 -58.103  14.720  0.00  0.00    +0.000 C 
ATOM     94  N   HIS D  12      34.962 -56.287  17.128  0.00  0.00    +0.000 N 
ATOM     95  H   HIS D  12      35.117 -55.663  16.351  0.00  0.00    +0.000 HD
ATOM     96  CA  HIS D  12      35.028 -55.724  18.467  0.00  0.00    +0.000 C 
ATOM     97  C   HIS D  12      33.930 -54.700  18.681  0.00  0.00    +0.000 C 
ATOM     98  O   HIS D  12      33.547 -53.973  17.761  0.00  0.00    +0.000 OA
ATOM     99  CB  HIS D  12      36.391 -55.076  18.716  0.00  0.00    +0.000 C 
ATOM    100  CG  HIS D  12      37.506 -56.069  18.740  0.00  0.00    +0.000 A 
ATOM    101  ND1 HIS D  12      38.386 -56.238  17.688  0.00  0.00    +0.000 NA
ATOM    102  CD2 HIS D  12      37.836 -57.003  19.662  0.00  0.00    +0.000 A 
ATOM    103  CE1 HIS D  12      39.235 -57.207  17.983  0.00  0.00    +0.000 A 
ATOM    104  NE2 HIS D  12      38.917 -57.692  19.173  0.00  0.00    +0.000 N 
ATOM    105  HE2 HIS D  12      39.207 -58.621  19.517  0.00  0.00    +0.000 HD
ATOM    106  N   ALA D  13      33.449 -54.638  19.924  0.00  0.00    +0.000 N 
ATOM    107  H   ALA D  13      33.844 -55.238  20.641  0.00  0.00    +0.000 HD
ATOM    108  CA  ALA D  13      32.385 -53.730  20.304  0.00  0.00    +0.000 C 
ATOM    109  C   ALA D  13      32.779 -52.961  21.553  0.00  0.00    +0.000 C 
ATOM    110  O   ALA D  13      33.516 -53.454  22.409  0.00  0.00    +0.000 OA
ATOM    111  CB  ALA D  13      31.063 -54.471  20.544  0.00  0.00    +0.000 C 
ATOM    112  N   NME D  14      32.263 -51.746  21.642  0.00  0.00    +0.000 N 
ATOM    113  H   NME D  14      31.647 -51.419  20.912  0.00  0.00    +0.000 HD
ATOM    114  C   NME D  14      32.607 -50.845  22.712  0.00  0.00    +0.000 C 
TER 
REMARK  Name = /home/xianyang/aimnet2_score_pipelines/work/L1234-fixed-receptor-eint-20260921/L1/P0C6U8/prepared.pdb
REMARK                            x       y       z     vdW  Elec       q    Type
REMARK                         _______ _______ _______ _____ _____    ______ ____
ATOM      1  CH3 ACE E   1      22.869 -52.723  19.587  0.00  0.00    +0.000 C 
ATOM      2  C   ACE E   1      23.453 -53.713  20.572  0.00  0.00    +0.000 C 
ATOM      3  O   ACE E   1      22.783 -54.663  20.977  0.00  0.00    +0.000 OA
ATOM      4  N   PHE E   2      24.702 -53.514  20.959  0.00  0.00    +0.000 N 
ATOM      5  H   PHE E   2      25.210 -52.705  20.648  0.00  0.00    +0.000 HD
ATOM      6  CA  PHE E   2      25.346 -54.485  21.824  0.00  0.00    +0.000 C 
ATOM      7  C   PHE E   2      25.150 -54.104  23.293  0.00  0.00    +0.000 C 
ATOM      8  O   PHE E   2      24.860 -52.951  23.626  0.00  0.00    +0.000 OA
ATOM      9  CB  PHE E   2      26.828 -54.604  21.442  0.00  0.00    +0.000 C 
ATOM     10  CG  PHE E   2      27.030 -54.857  19.969  0.00  0.00    +0.000 A 
ATOM     11  CD1 PHE E   2      26.577 -56.036  19.398  0.00  0.00    +0.000 A 
ATOM     12  CD2 PHE E   2      27.624 -53.908  19.157  0.00  0.00    +0.000 A 
ATOM     13  CE1 PHE E   2      26.730 -56.274  18.044  0.00  0.00    +0.000 A 
ATOM     14  CE2 PHE E   2      27.778 -54.133  17.801  0.00  0.00    +0.000 A 
ATOM     15  CZ  PHE E   2      27.328 -55.319  17.240  0.00  0.00    +0.000 A 
ATOM     16  N   VAL E   3      25.271 -55.109  24.162  0.00  0.00    +0.000 N 
ATOM     17  H   VAL E   3      25.481 -56.034  23.794  0.00  0.00    +0.000 HD
ATOM     18  CA  VAL E   3      25.095 -54.965  25.602  0.00  0.00    +0.000 C 
ATOM     19  C   VAL E   3      26.283 -55.604  26.311  0.00  0.00    +0.000 C 
ATOM     20  O   VAL E   3      26.866 -56.577  25.818  0.00  0.00    +0.000 OA
ATOM     21  CB  VAL E   3      23.768 -55.610  26.072  0.00  0.00    +0.000 C 
ATOM     22  CG1 VAL E   3      22.586 -55.004  25.334  0.00  0.00    +0.000 C 
ATOM     23  CG2 VAL E   3      23.804 -57.121  25.859  0.00  0.00    +0.000 C 
ATOM     24  N   ASP E   4      26.655 -55.062  27.478  0.00  0.00    +0.000 N 
ATOM     25  H   ASP E   4      26.173 -54.280  27.913  0.00  0.00    +0.000 HD
ATOM     26  CA  ASP E   4      27.733 -55.702  28.243  0.00  0.00    +0.000 C 
ATOM     27  C   ASP E   4      27.158 -56.808  29.131  0.00  0.00    +0.000 C 
ATOM     28  O   ASP E   4      27.149 -56.744  30.360  0.00  0.00    +0.000 OA
ATOM     29  CB  ASP E   4      28.548 -54.696  29.052  0.00  0.00    +0.000 C 
ATOM     30  CG  ASP E   4      27.715 -53.649  29.746  0.00  0.00    +0.000 C 
ATOM     31  OD1 ASP E   4      26.478 -53.667  29.630  0.00  0.00    +0.000 OA
ATOM     32  OD2 ASP E   4      28.334 -52.803  30.434  0.00  0.00    +0.000 OA
ATOM     33  N   ARG E   5      26.676 -57.849  28.464  0.00  0.00    +0.000 N 
ATOM     34  H   ARG E   5      26.720 -57.796  27.450  0.00  0.00    +0.000 HD
ATOM     35  CA  ARG E   5      26.439 -59.149  29.074  0.00  0.00    +0.000 C 
ATOM     36  C   ARG E   5      27.113 -60.194  28.200  0.00  0.00    +0.000 C 
ATOM     37  O   ARG E   5      27.083 -60.094  26.970  0.00  0.00    +0.000 OA
ATOM     38  CB  ARG E   5      24.945 -59.468  29.216  0.00  0.00    +0.000 C 
ATOM     39  CG  ARG E   5      24.046 -58.248  29.321  0.00  0.00    +0.000 C 
ATOM     40  CD  ARG E   5      22.569 -58.684  29.279  0.00  0.00    +0.000 C 
ATOM     41  NE  ARG E   5      21.683 -57.606  28.847  0.00  0.00    +0.000 N 
ATOM     42  HE  ARG E   5      21.987 -56.659  29.010  0.00  0.00    +0.000 HD
ATOM     43  CZ  ARG E   5      20.491 -57.803  28.289  0.00  0.00    +0.000 C 
ATOM     44  NH1 ARG E   5      19.741 -56.769  27.912  0.00  0.00    +0.000 N 
ATOM     45 HH11 ARG E   5      18.842 -56.956  27.504  0.00  0.00    +0.000 HD
ATOM     46 HH12 ARG E   5      20.056 -55.825  28.046  0.00  0.00    +0.000 HD
ATOM     47  NH2 ARG E   5      20.056 -59.041  28.086  0.00  0.00    +0.000 N 
ATOM     48 HH21 ARG E   5      19.978 -59.337  27.125  0.00  0.00    +0.000 HD
ATOM     49 HH22 ARG E   5      20.334 -59.736  28.759  0.00  0.00    +0.000 HD
ATOM     50  N   GLN E   6      27.744 -61.188  28.826  0.00  0.00    +0.000 N 
ATOM     51  H   GLN E   6      27.734 -61.246  29.841  0.00  0.00    +0.000 HD
ATOM     52  CA  GLN E   6      28.424 -62.230  28.060  0.00  0.00    +0.000 C 
ATOM     53  C   GLN E   6      27.381 -63.251  27.615  0.00  0.00    +0.000 C 
ATOM     54  O   GLN E   6      27.298 -64.373  28.116  0.00  0.00    +0.000 OA
ATOM     55  CB  GLN E   6      29.543 -62.886  28.859  0.00  0.00    +0.000 C 
ATOM     56  CG  GLN E   6      30.470 -63.712  27.971  0.00  0.00    +0.000 C 
ATOM     57  CD  GLN E   6      30.939 -65.019  28.608  0.00  0.00    +0.000 C 
ATOM     58  OE1 GLN E   6      31.747 -65.014  29.541  0.00  0.00    +0.000 OA
ATOM     59  NE2 GLN E   6      30.448 -66.145  28.088  0.00  0.00    +0.000 N 
ATOM     60 HE21 GLN E   6      30.753 -67.000  28.515  0.00  0.00    +0.000 HD
ATOM     61 HE22 GLN E   6      29.723 -66.109  27.395  0.00  0.00    +0.000 HD
ATOM     62  N   THR E   7      26.581 -62.833  26.642  0.00  0.00    +0.000 N 
ATOM     63  H   THR E   7      26.742 -61.900  26.284  0.00  0.00    +0.000 HD
ATOM     64  CA  THR E   7      25.606 -63.669  25.965  0.00  0.00    +0.000 C 
ATOM     65  C   THR E   7      25.971 -63.760  24.492  0.00  0.00    +0.000 C 
ATOM     66  O   THR E   7      27.023 -63.280  24.058  0.00  0.00    +0.000 OA
ATOM     67  CB  THR E   7      24.196 -63.119  26.120  0.00  0.00    +0.000 C 
ATOM     68  OG1 THR E   7      23.316 -63.883  25.292  0.00  0.00    +0.000 OA
ATOM     69  HG1 THR E   7      22.408 -63.580  25.448  0.00  0.00    +0.000 HD
ATOM     70  CG2 THR E   7      24.132 -61.665  25.692  0.00  0.00    +0.000 C 
ATOM     71  N   ALA E   8      25.091 -64.394  23.722  0.00  0.00    +0.000 N 
ATOM     72  H   ALA E   8      24.243 -64.757  24.131  0.00  0.00    +0.000 HD
ATOM     73  CA  ALA E   8      25.311 -64.607  22.293  0.00  0.00    +0.000 C 
ATOM     74  C   ALA E   8      24.784 -63.388  21.547  0.00  0.00    +0.000 C 
ATOM     75  O   ALA E   8      23.609 -63.310  21.176  0.00  0.00    +0.000 OA
ATOM     76  CB  ALA E   8      24.645 -65.897  21.829  0.00  0.00    +0.000 C 
ATOM     77  N   GLN E   9      25.666 -62.419  21.332  0.00  0.00    +0.000 N 
ATOM     78  H   GLN E   9      26.609 -62.545  21.674  0.00  0.00    +0.000 HD
ATOM     79  CA  GLN E   9      25.398 -61.288  20.460  0.00  0.00    +0.000 C 
ATOM     80  C   GLN E   9      26.153 -61.490  19.157  0.00  0.00    +0.000 C 
ATOM     81  O   GLN E   9      27.190 -62.156  19.121  0.00  0.00    +0.000 OA
ATOM     82  CB  GLN E   9      25.814 -59.967  21.112  0.00  0.00    +0.000 C 
ATOM     83  CG  GLN E   9      25.844 -60.040  22.602  0.00  0.00    +0.000 C 
ATOM     84  CD  GLN E   9      26.022 -58.696  23.281  0.00  0.00    +0.000 C 
ATOM     85  OE1 GLN E   9      25.518 -57.664  22.823  0.00  0.00    +0.000 OA
ATOM     86  NE2 GLN E   9      26.732 -58.708  24.402  0.00  0.00    +0.000 N 
ATOM     87 HE21 GLN E   9      27.032 -59.552  24.858  0.00  0.00    +0.000 HD
ATOM     88 HE22 GLN E   9      26.968 -57.812  24.790  0.00  0.00    +0.000 HD
ATOM     89  N   ALA E  10      25.605 -60.937  18.081  0.00  0.00    +0.000 N 
ATOM     90  H   ALA E  10      24.745 -60.413  18.165  0.00  0.00    +0.000 HD
ATOM     91  CA  ALA E  10      26.249 -60.974  16.777  0.00  0.00    +0.000 C 
ATOM     92  C   ALA E  10      25.977 -59.670  16.046  0.00  0.00    +0.000 C 
ATOM     93  O   ALA E  10      24.880 -59.108  16.130  0.00  0.00    +0.000 OA
ATOM     94  CB  ALA E  10      25.768 -62.155  15.924  0.00  0.00    +0.000 C 
ATOM     95  N   NME E  11      26.988 -59.185  15.347  0.00  0.00    +0.000 N 
ATOM     96  H   NME E  11      27.863 -59.685  15.317  0.00  0.00    +0.000 HD
ATOM     97  C   NME E  11      26.797 -58.023  14.500  0.00  0.00    +0.000 C 
TER 
