REMARK  Name = /home/xianyang/aimnet2_score_pipelines/work/L1234-fixed-receptor-eint-20260921/L2/Q14145/prepared.pdb
REMARK                            x       y       z     vdW  Elec       q    Type
REMARK                         _______ _______ _______ _____ _____    ______ ____
ATOM      1  CH3 ACE A   1      -1.951  14.037 -16.084  0.00  0.00    +0.000 C 
ATOM      2  C   ACE A   1      -0.855  13.050 -16.463  0.00  0.00    +0.000 C 
ATOM      3  O   ACE A   1      -1.124  11.873 -16.709  0.00  0.00    +0.000 OA
ATOM      4  N   GLY A   2       0.382  13.535 -16.505  0.00  0.00    +0.000 N 
ATOM      5  H   GLY A   2       0.537  14.510 -16.317  0.00  0.00    +0.000 HD
ATOM      6  CA  GLY A   2       1.518  12.691 -16.826  0.00  0.00    +0.000 C 
ATOM      7  C   GLY A   2       1.568  12.307 -18.292  0.00  0.00    +0.000 C 
ATOM      8  O   GLY A   2       1.234  13.107 -19.168  0.00  0.00    +0.000 OA
ATOM      9  N   GLY A   3       1.982  11.074 -18.560  0.00  0.00    +0.000 N 
ATOM     10  H   GLY A   3       2.316  10.502 -17.793  0.00  0.00    +0.000 HD
ATOM     11  CA  GLY A   3       2.136  10.604 -19.923  0.00  0.00    +0.000 C 
ATOM     12  C   GLY A   3       3.601  10.442 -20.274  0.00  0.00    +0.000 C 
ATOM     13  O   GLY A   3       4.472  10.635 -19.423  0.00  0.00    +0.000 OA
ATOM     14  N   TYR A   4       3.879  10.092 -21.526  0.00  0.00    +0.000 N 
ATOM     15  H   TYR A   4       3.118   9.817 -22.132  0.00  0.00    +0.000 HD
ATOM     16  CA  TYR A   4       5.252   9.854 -21.949  0.00  0.00    +0.000 C 
ATOM     17  C   TYR A   4       5.569  10.370 -23.348  0.00  0.00    +0.000 C 
ATOM     18  O   TYR A   4       4.821  10.140 -24.300  0.00  0.00    +0.000 OA
ATOM     19  CB  TYR A   4       5.591   8.365 -21.871  0.00  0.00    +0.000 C 
ATOM     20  CG  TYR A   4       6.977   8.040 -22.383  0.00  0.00    +0.000 A 
ATOM     21  CD1 TYR A   4       8.065   8.000 -21.521  0.00  0.00    +0.000 A 
ATOM     22  CD2 TYR A   4       7.200   7.787 -23.730  0.00  0.00    +0.000 A 
ATOM     23  CE1 TYR A   4       9.333   7.710 -21.984  0.00  0.00    +0.000 A 
ATOM     24  CE2 TYR A   4       8.465   7.495 -24.201  0.00  0.00    +0.000 A 
ATOM     25  CZ  TYR A   4       9.528   7.458 -23.324  0.00  0.00    +0.000 A 
ATOM     26  OH  TYR A   4      10.791   7.170 -23.789  0.00  0.00    +0.000 OA
ATOM     27  HH  TYR A   4      11.493   7.574 -23.257  0.00  0.00    +0.000 HD
ATOM     28  N   PHE A   5       6.691  11.073 -23.454  0.00  0.00    +0.000 N 
ATOM     29  H   PHE A   5       7.211  11.292 -22.609  0.00  0.00    +0.000 HD
ATOM     30  CA  PHE A   5       7.282  11.412 -24.741  0.00  0.00    +0.000 C 
ATOM     31  C   PHE A   5       8.759  11.719 -24.545  0.00  0.00    +0.000 C 
ATOM     32  O   PHE A   5       9.117  12.759 -23.995  0.00  0.00    +0.000 OA
ATOM     33  CB  PHE A   5       6.570  12.591 -25.402  0.00  0.00    +0.000 C 
ATOM     34  CG  PHE A   5       7.079  12.898 -26.780  0.00  0.00    +0.000 A 
ATOM     35  CD1 PHE A   5       6.848  12.022 -27.827  0.00  0.00    +0.000 A 
ATOM     36  CD2 PHE A   5       7.798  14.055 -27.029  0.00  0.00    +0.000 A 
ATOM     37  CE1 PHE A   5       7.318  12.296 -29.093  0.00  0.00    +0.000 A 
ATOM     38  CE2 PHE A   5       8.271  14.335 -28.293  0.00  0.00    +0.000 A 
ATOM     39  CZ  PHE A   5       8.031  13.454 -29.327  0.00  0.00    +0.000 A 
ATOM     40  N   ARG A   6       9.609  10.799 -24.991  0.00  0.00    +0.000 N 
ATOM     41  H   ARG A   6       9.234   9.977 -25.444  0.00  0.00    +0.000 HD
ATOM     42  CA  ARG A   6      11.043  10.875 -24.733  0.00  0.00    +0.000 C 
ATOM     43  C   ARG A   6      11.336  10.567 -23.267  0.00  0.00    +0.000 C 
ATOM     44  O   ARG A   6      12.335   9.927 -22.942  0.00  0.00    +0.000 OA
ATOM     45  CB  ARG A   6      11.603  12.250 -25.102  0.00  0.00    +0.000 C 
ATOM     46  CG  ARG A   6      13.110  12.346 -24.916  0.00  0.00    +0.000 C 
ATOM     47  CD  ARG A   6      13.604  13.783 -24.901  0.00  0.00    +0.000 C 
ATOM     48  NE  ARG A   6      15.016  13.848 -24.532  0.00  0.00    +0.000 N 
ATOM     49  HE  ARG A   6      15.307  13.343 -23.710  0.00  0.00    +0.000 HD
ATOM     50  CZ  ARG A   6      15.939  14.525 -25.207  0.00  0.00    +0.000 C 
ATOM     51  NH1 ARG A   6      15.602  15.209 -26.292  0.00  0.00    +0.000 N 
ATOM     52 HH11 ARG A   6      14.634  15.321 -26.511  0.00  0.00    +0.000 HD
ATOM     53 HH12 ARG A   6      16.296  15.695 -26.828  0.00  0.00    +0.000 HD
ATOM     54  NH2 ARG A   6      17.199  14.520 -24.795  0.00  0.00    +0.000 N 
ATOM     55 HH21 ARG A   6      17.893  15.018 -25.322  0.00  0.00    +0.000 HD
ATOM     56 HH22 ARG A   6      17.452  14.001 -23.972  0.00  0.00    +0.000 HD
ATOM     57  N   GLN A   7      10.454  11.032 -22.388  0.00  0.00    +0.000 N 
ATOM     58  H   GLN A   7       9.713  11.643 -22.702  0.00  0.00    +0.000 HD
ATOM     59  CA  GLN A   7      10.557  10.761 -20.959  0.00  0.00    +0.000 C 
ATOM     60  C   GLN A   7       9.206  10.967 -20.274  0.00  0.00    +0.000 C 
ATOM     61  O   GLN A   7       8.250  11.426 -20.899  0.00  0.00    +0.000 OA
ATOM     62  CB  GLN A   7      11.631  11.645 -20.319  0.00  0.00    +0.000 C 
ATOM     63  CG  GLN A   7      11.530  13.117 -20.686  0.00  0.00    +0.000 C 
ATOM     64  CD  GLN A   7      12.758  13.909 -20.270  0.00  0.00    +0.000 C 
ATOM     65  OE1 GLN A   7      13.494  13.508 -19.366  0.00  0.00    +0.000 OA
ATOM     66  NE2 GLN A   7      12.990  15.035 -20.937  0.00  0.00    +0.000 N 
ATOM     67 HE21 GLN A   7      13.738  15.600 -20.573  0.00  0.00    +0.000 HD
ATOM     68 HE22 GLN A   7      12.299  15.392 -21.570  0.00  0.00    +0.000 HD
ATOM     69  N   SER A   8       9.127  10.616 -18.994  0.00  0.00    +0.000 N 
ATOM     70  H   SER A   8       9.945  10.277 -18.511  0.00  0.00    +0.000 HD
ATOM     71  CA  SER A   8       7.896  10.795 -18.230  0.00  0.00    +0.000 C 
ATOM     72  C   SER A   8       7.526  12.272 -18.143  0.00  0.00    +0.000 C 
ATOM     73  O   SER A   8       8.386  13.123 -17.914  0.00  0.00    +0.000 OA
ATOM     74  CB  SER A   8       8.039  10.195 -16.833  0.00  0.00    +0.000 C 
ATOM     75  OG  SER A   8       8.258   8.797 -16.907  0.00  0.00    +0.000 OA
ATOM     76  HG  SER A   8       8.076   8.434 -16.013  0.00  0.00    +0.000 HD
ATOM     77  N   LEU A   9       6.244  12.574 -18.321  0.00  0.00    +0.000 N 
ATOM     78  H   LEU A   9       5.577  11.837 -18.524  0.00  0.00    +0.000 HD
ATOM     79  CA  LEU A   9       5.798  13.960 -18.424  0.00  0.00    +0.000 C 
ATOM     80  C   LEU A   9       5.126  14.465 -17.153  0.00  0.00    +0.000 C 
ATOM     81  O   LEU A   9       4.658  13.681 -16.328  0.00  0.00    +0.000 OA
ATOM     82  CB  LEU A   9       4.861  14.128 -19.623  0.00  0.00    +0.000 C 
ATOM     83  CG  LEU A   9       5.443  13.688 -20.968  0.00  0.00    +0.000 C 
ATOM     84  CD1 LEU A   9       4.424  13.864 -22.086  0.00  0.00    +0.000 C 
ATOM     85  CD2 LEU A   9       6.726  14.448 -21.275  0.00  0.00    +0.000 C 
ATOM     86  N   NME A  10       5.073  15.785 -17.008  0.00  0.00    +0.000 N 
ATOM     87  H   NME A  10       5.485  16.370 -17.719  0.00  0.00    +0.000 HD
ATOM     88  C   NME A  10       4.526  16.404 -15.804  0.00  0.00    +0.000 C 
TER 
REMARK  Name = /home/xianyang/aimnet2_score_pipelines/work/L1234-fixed-receptor-eint-20260921/L2/Q14145/prepared.pdb
REMARK                            x       y       z     vdW  Elec       q    Type
REMARK                         _______ _______ _______ _____ _____    ______ ____
ATOM      1  CH3 ACE B   1       6.746  13.391 -13.851  0.00  0.00    +0.000 C 
ATOM      2  C   ACE B   1       6.584  11.874 -13.812  0.00  0.00    +0.000 C 
ATOM      3  O   ACE B   1       7.436  11.179 -13.256  0.00  0.00    +0.000 OA
ATOM      4  N   ARG B   2       5.500  11.367 -14.390  0.00  0.00    +0.000 N 
ATOM      5  H   ARG B   2       4.881  11.986 -14.910  0.00  0.00    +0.000 HD
ATOM      6  CA  ARG B   2       5.245   9.932 -14.374  0.00  0.00    +0.000 C 
ATOM      7  C   ARG B   2       4.464   9.479 -15.597  0.00  0.00    +0.000 C 
ATOM      8  O   ARG B   2       3.532  10.150 -16.037  0.00  0.00    +0.000 OA
ATOM      9  CB  ARG B   2       4.498   9.540 -13.098  0.00  0.00    +0.000 C 
ATOM     10  CG  ARG B   2       4.914  10.359 -11.887  0.00  0.00    +0.000 C 
ATOM     11  CD  ARG B   2       4.891   9.548 -10.606  0.00  0.00    +0.000 C 
ATOM     12  NE  ARG B   2       3.543   9.329 -10.091  0.00  0.00    +0.000 N 
ATOM     13  HE  ARG B   2       3.101   8.431 -10.286  0.00  0.00    +0.000 HD
ATOM     14  CZ  ARG B   2       2.834  10.249  -9.447  0.00  0.00    +0.000 C 
ATOM     15  NH1 ARG B   2       3.338  11.462  -9.261  0.00  0.00    +0.000 N 
ATOM     16 HH11 ARG B   2       2.804  12.159  -8.777  0.00  0.00    +0.000 HD
ATOM     17 HH12 ARG B   2       4.254  11.663  -9.614  0.00  0.00    +0.000 HD
ATOM     18  NH2 ARG B   2       1.618   9.963  -8.998  0.00  0.00    +0.000 N 
ATOM     19 HH21 ARG B   2       1.233   9.063  -9.237  0.00  0.00    +0.000 HD
ATOM     20 HH22 ARG B   2       1.070  10.663  -8.535  0.00  0.00    +0.000 HD
ATOM     21  N   SER B   3       4.861   8.339 -16.149  0.00  0.00    +0.000 N 
ATOM     22  H   SER B   3       5.627   7.839 -15.720  0.00  0.00    +0.000 HD
ATOM     23  CA  SER B   3       4.124   7.721 -17.241  0.00  0.00    +0.000 C 
ATOM     24  C   SER B   3       3.538   6.408 -16.750  0.00  0.00    +0.000 C 
ATOM     25  O   SER B   3       3.965   5.876 -15.726  0.00  0.00    +0.000 OA
ATOM     26  CB  SER B   3       5.039   7.466 -18.437  0.00  0.00    +0.000 C 
ATOM     27  OG  SER B   3       6.042   6.521 -18.111  0.00  0.00    +0.000 OA
ATOM     28  HG  SER B   3       6.636   6.971 -17.496  0.00  0.00    +0.000 HD
ATOM     29  N   GLY B   4       2.561   5.886 -17.478  0.00  0.00    +0.000 N 
ATOM     30  H   GLY B   4       2.136   6.444 -18.209  0.00  0.00    +0.000 HD
ATOM     31  CA  GLY B   4       1.935   4.634 -17.102  0.00  0.00    +0.000 C 
ATOM     32  C   GLY B   4       1.291   4.708 -15.732  0.00  0.00    +0.000 C 
ATOM     33  O   GLY B   4       1.216   3.707 -15.019  0.00  0.00    +0.000 OA
ATOM     34  N   LEU B   5       0.835   5.900 -15.361  0.00  0.00    +0.000 N 
ATOM     35  H   LEU B   5       0.836   6.649 -16.034  0.00  0.00    +0.000 HD
ATOM     36  CA  LEU B   5       0.120   6.086 -14.103  0.00  0.00    +0.000 C 
ATOM     37  C   LEU B   5      -1.379   5.988 -14.345  0.00  0.00    +0.000 C 
ATOM     38  O   LEU B   5      -1.824   5.810 -15.478  0.00  0.00    +0.000 OA
ATOM     39  CB  LEU B   5       0.443   7.447 -13.485  0.00  0.00    +0.000 C 
ATOM     40  CG  LEU B   5      -0.146   8.658 -14.213  0.00  0.00    +0.000 C 
ATOM     41  CD1 LEU B   5      -0.181   9.880 -13.308  0.00  0.00    +0.000 C 
ATOM     42  CD2 LEU B   5       0.640   8.953 -15.481  0.00  0.00    +0.000 C 
ATOM     43  N   ALA B   6      -2.155   6.113 -13.276  0.00  0.00    +0.000 N 
ATOM     44  H   ALA B   6      -1.732   6.245 -12.365  0.00  0.00    +0.000 HD
ATOM     45  CA  ALA B   6      -3.606   6.106 -13.386  0.00  0.00    +0.000 C 
ATOM     46  C   ALA B   6      -4.198   7.318 -12.681  0.00  0.00    +0.000 C 
ATOM     47  O   ALA B   6      -3.662   7.787 -11.681  0.00  0.00    +0.000 OA
ATOM     48  CB  ALA B   6      -4.179   4.822 -12.807  0.00  0.00    +0.000 C 
ATOM     49  N   NME B   7      -5.303   7.827 -13.210  0.00  0.00    +0.000 N 
ATOM     50  H   NME B   7      -5.705   7.383 -14.020  0.00  0.00    +0.000 HD
ATOM     51  C   NME B   7      -6.000   8.928 -12.574  0.00  0.00    +0.000 C 
TER 
REMARK  Name = /home/xianyang/aimnet2_score_pipelines/work/L1234-fixed-receptor-eint-20260921/L2/Q14145/prepared.pdb
REMARK                            x       y       z     vdW  Elec       q    Type
REMARK                         _______ _______ _______ _____ _____    ______ ____
ATOM      1  CH3 ACE C   1      -1.354   6.949  -8.712  0.00  0.00    +0.000 C 
ATOM      2  C   ACE C   1      -0.242   6.232  -9.469  0.00  0.00    +0.000 C 
ATOM      3  O   ACE C   1      -0.315   6.058 -10.685  0.00  0.00    +0.000 OA
ATOM      4  N   GLY C   2       0.779   5.802  -8.734  0.00  0.00    +0.000 N 
ATOM      5  H   GLY C   2       0.756   5.956  -7.739  0.00  0.00    +0.000 HD
ATOM      6  CA  GLY C   2       1.858   5.007  -9.296  0.00  0.00    +0.000 C 
ATOM      7  C   GLY C   2       2.422   5.557 -10.591  0.00  0.00    +0.000 C 
ATOM      8  O   GLY C   2       2.455   6.768 -10.803  0.00  0.00    +0.000 OA
ATOM      9  N   GLY C   3       2.870   4.659 -11.461  0.00  0.00    +0.000 N 
ATOM     10  H   GLY C   3       2.796   3.671 -11.242  0.00  0.00    +0.000 HD
ATOM     11  CA  GLY C   3       3.457   5.051 -12.726  0.00  0.00    +0.000 C 
ATOM     12  C   GLY C   3       4.964   4.888 -12.728  0.00  0.00    +0.000 C 
ATOM     13  O   GLY C   3       5.520   4.110 -11.949  0.00  0.00    +0.000 OA
ATOM     14  N   ARG C   4       5.628   5.630 -13.608  0.00  0.00    +0.000 N 
ATOM     15  H   ARG C   4       5.084   6.089 -14.330  0.00  0.00    +0.000 HD
ATOM     16  CA  ARG C   4       7.079   5.583 -13.713  0.00  0.00    +0.000 C 
ATOM     17  C   ARG C   4       7.651   6.989 -13.852  0.00  0.00    +0.000 C 
ATOM     18  O   ARG C   4       7.293   7.725 -14.769  0.00  0.00    +0.000 OA
ATOM     19  CB  ARG C   4       7.502   4.727 -14.907  0.00  0.00    +0.000 C 
ATOM     20  CG  ARG C   4       9.005   4.509 -15.011  0.00  0.00    +0.000 C 
ATOM     21  CD  ARG C   4       9.362   3.693 -16.241  0.00  0.00    +0.000 C 
ATOM     22  NE  ARG C   4       9.164   4.453 -17.471  0.00  0.00    +0.000 N 
ATOM     23  HE  ARG C   4       8.963   5.437 -17.386  0.00  0.00    +0.000 HD
ATOM     24  CZ  ARG C   4       9.287   3.943 -18.692  0.00  0.00    +0.000 C 
ATOM     25  NH1 ARG C   4       9.603   2.665 -18.851  0.00  0.00    +0.000 N 
ATOM     26 HH11 ARG C   4       9.829   2.329 -19.769  0.00  0.00    +0.000 HD
ATOM     27 HH12 ARG C   4       9.869   2.144 -18.035  0.00  0.00    +0.000 HD
ATOM     28  NH2 ARG C   4       9.089   4.711 -19.756  0.00  0.00    +0.000 N 
ATOM     29 HH21 ARG C   4       9.189   4.342 -20.684  0.00  0.00    +0.000 HD
ATOM     30 HH22 ARG C   4       8.770   5.657 -19.630  0.00  0.00    +0.000 HD
ATOM     31  N   ASN C   5       8.542   7.356 -12.937  0.00  0.00    +0.000 N 
ATOM     32  H   ASN C   5       8.882   6.678 -12.273  0.00  0.00    +0.000 HD
ATOM     33  CA  ASN C   5       9.166   8.670 -12.966  0.00  0.00    +0.000 C 
ATOM     34  C   ASN C   5      10.458   8.673 -13.781  0.00  0.00    +0.000 C 
ATOM     35  O   ASN C   5      10.777   7.698 -14.461  0.00  0.00    +0.000 OA
ATOM     36  CB  ASN C   5       9.432   9.170 -11.544  0.00  0.00    +0.000 C 
ATOM     37  CG  ASN C   5      10.345   8.244 -10.760  0.00  0.00    +0.000 C 
ATOM     38  OD1 ASN C   5      11.245   7.617 -11.321  0.00  0.00    +0.000 OA
ATOM     39  ND2 ASN C   5      10.110   8.147  -9.456  0.00  0.00    +0.000 N 
ATOM     40 HD21 ASN C   5       9.399   8.692  -9.009  0.00  0.00    +0.000 HD
ATOM     41 HD22 ASN C   5      10.737   7.554  -8.938  0.00  0.00    +0.000 HD
ATOM     42  N   NME C   6      11.195   9.777 -13.710  0.00  0.00    +0.000 N 
ATOM     43  H   NME C   6      10.877  10.548 -13.145  0.00  0.00    +0.000 HD
ATOM     44  C   NME C   6      12.454   9.904 -14.433  0.00  0.00    +0.000 C 
TER 
REMARK  Name = /home/xianyang/aimnet2_score_pipelines/work/L1234-fixed-receptor-eint-20260921/L2/Q14145/prepared.pdb
REMARK                            x       y       z     vdW  Elec       q    Type
REMARK                         _______ _______ _______ _____ _____    ______ ____
ATOM      1  CH3 ACE D   1       5.756   0.605  -6.491  0.00  0.00    +0.000 C 
ATOM      2  C   ACE D   1       4.889  -0.118  -7.515  0.00  0.00    +0.000 C 
ATOM      3  O   ACE D   1       4.962  -1.344  -7.620  0.00  0.00    +0.000 OA
ATOM      4  N   ARG D   2       4.077   0.629  -8.256  0.00  0.00    +0.000 N 
ATOM      5  H   ARG D   2       4.093   1.631  -8.137  0.00  0.00    +0.000 HD
ATOM      6  CA  ARG D   2       3.181   0.032  -9.239  0.00  0.00    +0.000 C 
ATOM      7  C   ARG D   2       3.197   0.805 -10.553  0.00  0.00    +0.000 C 
ATOM      8  O   ARG D   2       2.497   1.806 -10.702  0.00  0.00    +0.000 OA
ATOM      9  CB  ARG D   2       1.753  -0.031  -8.693  0.00  0.00    +0.000 C 
ATOM     10  CG  ARG D   2       1.607  -0.810  -7.392  0.00  0.00    +0.000 C 
ATOM     11  CD  ARG D   2       0.165  -0.798  -6.907  0.00  0.00    +0.000 C 
ATOM     12  NE  ARG D   2      -0.019  -1.579  -5.686  0.00  0.00    +0.000 N 
ATOM     13  HE  ARG D   2       0.075  -1.101  -4.805  0.00  0.00    +0.000 HD
ATOM     14  CZ  ARG D   2      -0.286  -2.882  -5.664  0.00  0.00    +0.000 C 
ATOM     15  NH1 ARG D   2      -0.396  -3.561  -6.798  0.00  0.00    +0.000 N 
ATOM     16 HH11 ARG D   2      -0.257  -3.085  -7.669  0.00  0.00    +0.000 HD
ATOM     17 HH12 ARG D   2      -0.596  -4.544  -6.784  0.00  0.00    +0.000 HD
ATOM     18  NH2 ARG D   2      -0.438  -3.511  -4.505  0.00  0.00    +0.000 N 
ATOM     19 HH21 ARG D   2      -0.383  -3.004  -3.639  0.00  0.00    +0.000 HD
ATOM     20 HH22 ARG D   2      -0.610  -4.500  -4.482  0.00  0.00    +0.000 HD
ATOM     21  N   ASN D   3       4.003   0.336 -11.501  0.00  0.00    +0.000 N 
ATOM     22  H   ASN D   3       4.527  -0.506 -11.324  0.00  0.00    +0.000 HD
ATOM     23  CA  ASN D   3       4.031   0.917 -12.838  0.00  0.00    +0.000 C 
ATOM     24  C   ASN D   3       3.030   0.212 -13.742  0.00  0.00    +0.000 C 
ATOM     25  O   ASN D   3       2.723  -0.961 -13.535  0.00  0.00    +0.000 OA
ATOM     26  CB  ASN D   3       5.434   0.826 -13.441  0.00  0.00    +0.000 C 
ATOM     27  CG  ASN D   3       5.528   1.500 -14.798  0.00  0.00    +0.000 C 
ATOM     28  OD1 ASN D   3       4.848   2.494 -15.060  0.00  0.00    +0.000 OA
ATOM     29  ND2 ASN D   3       6.372   0.957 -15.671  0.00  0.00    +0.000 N 
ATOM     30 HD21 ASN D   3       6.455   1.436 -16.546  0.00  0.00    +0.000 HD
ATOM     31 HD22 ASN D   3       6.925   0.166 -15.393  0.00  0.00    +0.000 HD
ATOM     32  N   ARG D   4       2.530   0.925 -14.745  0.00  0.00    +0.000 N 
ATOM     33  H   ARG D   4       2.816   1.895 -14.854  0.00  0.00    +0.000 HD
ATOM     34  CA  ARG D   4       1.516   0.370 -15.632  0.00  0.00    +0.000 C 
ATOM     35  C   ARG D   4       0.336  -0.089 -14.790  0.00  0.00    +0.000 C 
ATOM     36  O   ARG D   4      -0.120  -1.228 -14.885  0.00  0.00    +0.000 OA
ATOM     37  CB  ARG D   4       2.102  -0.772 -16.460  0.00  0.00    +0.000 C 
ATOM     38  CG  ARG D   4       3.221  -0.304 -17.383  0.00  0.00    +0.000 C 
ATOM     39  CD  ARG D   4       3.913  -1.449 -18.093  0.00  0.00    +0.000 C 
ATOM     40  NE  ARG D   4       5.013  -0.969 -18.924  0.00  0.00    +0.000 N 
ATOM     41  HE  ARG D   4       5.101   0.024 -19.051  0.00  0.00    +0.000 HD
ATOM     42  CZ  ARG D   4       5.873  -1.760 -19.557  0.00  0.00    +0.000 C 
ATOM     43  NH1 ARG D   4       5.767  -3.078 -19.455  0.00  0.00    +0.000 N 
ATOM     44 HH11 ARG D   4       5.042  -3.451 -18.871  0.00  0.00    +0.000 HD
ATOM     45 HH12 ARG D   4       6.441  -3.673 -19.901  0.00  0.00    +0.000 HD
ATOM     46  NH2 ARG D   4       6.843  -1.232 -20.291  0.00  0.00    +0.000 N 
ATOM     47 HH21 ARG D   4       6.866  -0.241 -20.439  0.00  0.00    +0.000 HD
ATOM     48 HH22 ARG D   4       7.473  -1.847 -20.777  0.00  0.00    +0.000 HD
ATOM     49  N   ILE D   5      -0.154   0.840 -13.976  0.00  0.00    +0.000 N 
ATOM     50  H   ILE D   5       0.210   1.780 -14.060  0.00  0.00    +0.000 HD
ATOM     51  CA  ILE D   5      -1.142   0.572 -12.942  0.00  0.00    +0.000 C 
ATOM     52  C   ILE D   5      -2.581   0.734 -13.433  0.00  0.00    +0.000 C 
ATOM     53  O   ILE D   5      -2.838   1.386 -14.447  0.00  0.00    +0.000 OA
ATOM     54  CB  ILE D   5      -0.912   1.525 -11.747  0.00  0.00    +0.000 C 
ATOM     55  CG1 ILE D   5      -1.763   1.124 -10.541  0.00  0.00    +0.000 C 
ATOM     56  CG2 ILE D   5      -1.191   2.963 -12.151  0.00  0.00    +0.000 C 
ATOM     57  CD1 ILE D   5      -1.537   2.011  -9.328  0.00  0.00    +0.000 C 
ATOM     58  N   NME D   6      -3.513   0.128 -12.703  0.00  0.00    +0.000 N 
ATOM     59  H   NME D   6      -3.225  -0.434 -11.920  0.00  0.00    +0.000 HD
ATOM     60  C   NME D   6      -4.933   0.288 -12.960  0.00  0.00    +0.000 C 
TER 
REMARK  Name = /home/xianyang/aimnet2_score_pipelines/work/L1234-fixed-receptor-eint-20260921/L2/Q14145/prepared.pdb
REMARK                            x       y       z     vdW  Elec       q    Type
REMARK                         _______ _______ _______ _____ _____    ______ ____
ATOM      1  CH3 ACE E   1      -0.849 -11.083 -12.098  0.00  0.00    +0.000 C 
ATOM      2  C   ACE E   1      -1.105 -10.267 -13.355  0.00  0.00    +0.000 C 
ATOM      3  O   ACE E   1      -1.108 -10.808 -14.458  0.00  0.00    +0.000 OA
ATOM      4  N   ARG E   2      -1.325  -8.967 -13.192  0.00  0.00    +0.000 N 
ATOM      5  H   ARG E   2      -1.268  -8.563 -12.269  0.00  0.00    +0.000 HD
ATOM      6  CA  ARG E   2      -1.670  -8.117 -14.328  0.00  0.00    +0.000 C 
ATOM      7  C   ARG E   2      -0.949  -6.774 -14.297  0.00  0.00    +0.000 C 
ATOM      8  O   ARG E   2      -1.177  -5.960 -13.402  0.00  0.00    +0.000 OA
ATOM      9  CB  ARG E   2      -3.181  -7.870 -14.368  0.00  0.00    +0.000 C 
ATOM     10  CG  ARG E   2      -4.034  -9.127 -14.327  0.00  0.00    +0.000 C 
ATOM     11  CD  ARG E   2      -5.510  -8.774 -14.264  0.00  0.00    +0.000 C 
ATOM     12  NE  ARG E   2      -6.357  -9.960 -14.188  0.00  0.00    +0.000 N 
ATOM     13  HE  ARG E   2      -6.558 -10.334 -13.276  0.00  0.00    +0.000 HD
ATOM     14  CZ  ARG E   2      -6.872 -10.576 -15.248  0.00  0.00    +0.000 C 
ATOM     15  NH1 ARG E   2      -6.625 -10.118 -16.469  0.00  0.00    +0.000 N 
ATOM     16 HH11 ARG E   2      -7.035 -10.542 -17.274  0.00  0.00    +0.000 HD
ATOM     17 HH12 ARG E   2      -6.053  -9.284 -16.583  0.00  0.00    +0.000 HD
ATOM     18  NH2 ARG E   2      -7.633 -11.649 -15.088  0.00  0.00    +0.000 N 
ATOM     19 HH21 ARG E   2      -8.053 -12.090 -15.888  0.00  0.00    +0.000 HD
ATOM     20 HH22 ARG E   2      -7.789 -12.039 -14.173  0.00  0.00    +0.000 HD
ATOM     21  N   ILE E   3      -0.076  -6.545 -15.273  0.00  0.00    +0.000 N 
ATOM     22  H   ILE E   3       0.223  -7.308 -15.867  0.00  0.00    +0.000 HD
ATOM     23  CA  ILE E   3       0.481  -5.213 -15.477  0.00  0.00    +0.000 C 
ATOM     24  C   ILE E   3      -0.054  -4.665 -16.793  0.00  0.00    +0.000 C 
ATOM     25  O   ILE E   3      -0.207  -5.405 -17.763  0.00  0.00    +0.000 OA
ATOM     26  CB  ILE E   3       2.026  -5.204 -15.492  0.00  0.00    +0.000 C 
ATOM     27  CG1 ILE E   3       2.554  -5.234 -16.927  0.00  0.00    +0.000 C 
ATOM     28  CG2 ILE E   3       2.580  -6.351 -14.660  0.00  0.00    +0.000 C 
ATOM     29  CD1 ILE E   3       4.036  -4.981 -17.028  0.00  0.00    +0.000 C 
ATOM     30  N   GLY E   4      -0.343  -3.371 -16.823  0.00  0.00    +0.000 N 
ATOM     31  H   GLY E   4      -0.194  -2.793 -15.997  0.00  0.00    +0.000 HD
ATOM     32  CA  GLY E   4      -0.990  -2.778 -17.978  0.00  0.00    +0.000 C 
ATOM     33  C   GLY E   4      -2.453  -3.175 -17.984  0.00  0.00    +0.000 C 
ATOM     34  O   GLY E   4      -3.098  -3.239 -19.032  0.00  0.00    +0.000 OA
ATOM     35  N   VAL E   5      -2.968  -3.449 -16.791  0.00  0.00    +0.000 N 
ATOM     36  H   VAL E   5      -2.412  -3.266 -15.971  0.00  0.00    +0.000 HD
ATOM     37  CA  VAL E   5      -4.347  -3.875 -16.612  0.00  0.00    +0.000 C 
ATOM     38  C   VAL E   5      -5.312  -2.699 -16.736  0.00  0.00    +0.000 C 
ATOM     39  O   VAL E   5      -4.967  -1.561 -16.422  0.00  0.00    +0.000 OA
ATOM     40  CB  VAL E   5      -4.539  -4.555 -15.235  0.00  0.00    +0.000 C 
ATOM     41  CG1 VAL E   5      -4.134  -3.612 -14.114  0.00  0.00    +0.000 C 
ATOM     42  CG2 VAL E   5      -5.977  -5.016 -15.055  0.00  0.00    +0.000 C 
ATOM     43  N   GLY E   6      -6.521  -2.982 -17.207  0.00  0.00    +0.000 N 
ATOM     44  H   GLY E   6      -6.752  -3.942 -17.446  0.00  0.00    +0.000 HD
ATOM     45  CA  GLY E   6      -7.572  -1.984 -17.263  0.00  0.00    +0.000 C 
ATOM     46  C   GLY E   6      -8.561  -2.225 -16.141  0.00  0.00    +0.000 C 
ATOM     47  O   GLY E   6      -8.990  -3.357 -15.914  0.00  0.00    +0.000 OA
ATOM     48  N   NME E   7      -8.919  -1.162 -15.429  0.00  0.00    +0.000 N 
ATOM     49  H   NME E   7      -8.503  -0.269 -15.643  0.00  0.00    +0.000 HD
ATOM     50  C   NME E   7      -9.814  -1.282 -14.287  0.00  0.00    +0.000 C 
TER 
REMARK  Name = /home/xianyang/aimnet2_score_pipelines/work/L1234-fixed-receptor-eint-20260921/L2/Q14145/prepared.pdb
REMARK                            x       y       z     vdW  Elec       q    Type
REMARK                         _______ _______ _______ _____ _____    ______ ____
ATOM      1  CH3 ACE F   1      -9.263  -6.558 -17.346  0.00  0.00    +0.000 C 
ATOM      2  C   ACE F   1      -7.930  -6.620 -18.088  0.00  0.00    +0.000 C 
ATOM      3  O   ACE F   1      -7.153  -5.664 -18.080  0.00  0.00    +0.000 OA
ATOM      4  N   GLY F   2      -7.680  -7.757 -18.731  0.00  0.00    +0.000 N 
ATOM      5  H   GLY F   2      -8.395  -8.463 -18.736  0.00  0.00    +0.000 HD
ATOM      6  CA  GLY F   2      -6.484  -7.951 -19.528  0.00  0.00    +0.000 C 
ATOM      7  C   GLY F   2      -5.197  -7.708 -18.767  0.00  0.00    +0.000 C 
ATOM      8  O   GLY F   2      -5.175  -7.708 -17.535  0.00  0.00    +0.000 OA
ATOM      9  N   GLY F   3      -4.117  -7.505 -19.511  0.00  0.00    +0.000 N 
ATOM     10  H   GLY F   3      -4.199  -7.545 -20.521  0.00  0.00    +0.000 HD
ATOM     11  CA  GLY F   3      -2.828  -7.218 -18.914  0.00  0.00    +0.000 C 
ATOM     12  C   GLY F   3      -1.753  -8.197 -19.338  0.00  0.00    +0.000 C 
ATOM     13  O   GLY F   3      -1.889  -8.896 -20.341  0.00  0.00    +0.000 OA
ATOM     14  N   PHE F   4      -0.680  -8.244 -18.557  0.00  0.00    +0.000 N 
ATOM     15  H   PHE F   4      -0.588  -7.564 -17.815  0.00  0.00    +0.000 HD
ATOM     16  CA  PHE F   4       0.465  -9.090 -18.855  0.00  0.00    +0.000 C 
ATOM     17  C   PHE F   4       0.951  -9.727 -17.559  0.00  0.00    +0.000 C 
ATOM     18  O   PHE F   4       1.357  -9.027 -16.631  0.00  0.00    +0.000 OA
ATOM     19  CB  PHE F   4       1.571  -8.252 -19.500  0.00  0.00    +0.000 C 
ATOM     20  CG  PHE F   4       2.779  -9.042 -19.914  0.00  0.00    +0.000 A 
ATOM     21  CD1 PHE F   4       2.682 -10.032 -20.878  0.00  0.00    +0.000 A 
ATOM     22  CD2 PHE F   4       4.020  -8.775 -19.359  0.00  0.00    +0.000 A 
ATOM     23  CE1 PHE F   4       3.795 -10.753 -21.267  0.00  0.00    +0.000 A 
ATOM     24  CE2 PHE F   4       5.138  -9.491 -19.744  0.00  0.00    +0.000 A 
ATOM     25  CZ  PHE F   4       5.025 -10.482 -20.699  0.00  0.00    +0.000 A 
ATOM     26  N   ASP F   5       0.893 -11.054 -17.493  0.00  0.00    +0.000 N 
ATOM     27  H   ASP F   5       0.589 -11.603 -18.293  0.00  0.00    +0.000 HD
ATOM     28  CA  ASP F   5       1.220 -11.772 -16.263  0.00  0.00    +0.000 C 
ATOM     29  C   ASP F   5       2.715 -12.019 -16.112  0.00  0.00    +0.000 C 
ATOM     30  O   ASP F   5       3.141 -12.774 -15.238  0.00  0.00    +0.000 OA
ATOM     31  CB  ASP F   5       0.461 -13.099 -16.194  0.00  0.00    +0.000 C 
ATOM     32  CG  ASP F   5       0.820 -14.036 -17.329  0.00  0.00    +0.000 C 
ATOM     33  OD1 ASP F   5       1.983 -14.009 -17.782  0.00  0.00    +0.000 OA
ATOM     34  OD2 ASP F   5      -0.064 -14.799 -17.769  0.00  0.00    +0.000 OA
ATOM     35  N   GLY F   6       3.509 -11.382 -16.964  0.00  0.00    +0.000 N 
ATOM     36  H   GLY F   6       3.088 -10.813 -17.679  0.00  0.00    +0.000 HD
ATOM     37  CA  GLY F   6       4.950 -11.538 -16.913  0.00  0.00    +0.000 C 
ATOM     38  C   GLY F   6       5.466 -12.537 -17.930  0.00  0.00    +0.000 C 
ATOM     39  O   GLY F   6       6.660 -12.574 -18.224  0.00  0.00    +0.000 OA
ATOM     40  N   THR F   7       4.564 -13.354 -18.465  0.00  0.00    +0.000 N 
ATOM     41  H   THR F   7       3.610 -13.360 -18.099  0.00  0.00    +0.000 HD
ATOM     42  CA  THR F   7       4.928 -14.330 -19.485  0.00  0.00    +0.000 C 
ATOM     43  C   THR F   7       4.041 -14.198 -20.715  0.00  0.00    +0.000 C 
ATOM     44  O   THR F   7       4.533 -14.146 -21.842  0.00  0.00    +0.000 OA
ATOM     45  CB  THR F   7       4.847 -15.773 -18.956  0.00  0.00    +0.000 C 
ATOM     46  OG1 THR F   7       5.908 -16.002 -18.020  0.00  0.00    +0.000 OA
ATOM     47  HG1 THR F   7       5.780 -15.372 -17.310  0.00  0.00    +0.000 HD
ATOM     48  CG2 THR F   7       4.974 -16.765 -20.101  0.00  0.00    +0.000 C 
ATOM     49  N   ASN F   8       2.732 -14.141 -20.492  0.00  0.00    +0.000 N 
ATOM     50  H   ASN F   8       2.375 -14.184 -19.533  0.00  0.00    +0.000 HD
ATOM     51  CA  ASN F   8       1.773 -14.033 -21.586  0.00  0.00    +0.000 C 
ATOM     52  C   ASN F   8       0.844 -12.835 -21.450  0.00  0.00    +0.000 C 
ATOM     53  O   ASN F   8       0.480 -12.438 -20.343  0.00  0.00    +0.000 OA
ATOM     54  CB  ASN F   8       0.937 -15.311 -21.697  0.00  0.00    +0.000 C 
ATOM     55  CG  ASN F   8       1.723 -16.474 -22.264  0.00  0.00    +0.000 C 
ATOM     56  OD1 ASN F   8       1.926 -17.486 -21.593  0.00  0.00    +0.000 OA
ATOM     57  ND2 ASN F   8       2.166 -16.338 -23.509  0.00  0.00    +0.000 N 
ATOM     58 HD21 ASN F   8       2.721 -17.103 -23.848  0.00  0.00    +0.000 HD
ATOM     59 HD22 ASN F   8       1.997 -15.504 -24.030  0.00  0.00    +0.000 HD
ATOM     60  N   ARG F   9       0.464 -12.262 -22.586  0.00  0.00    +0.000 N 
ATOM     61  H   ARG F   9       0.720 -12.704 -23.454  0.00  0.00    +0.000 HD
ATOM     62  CA  ARG F   9      -0.546 -11.218 -22.607  0.00  0.00    +0.000 C 
ATOM     63  C   ARG F   9      -1.900 -11.863 -22.330  0.00  0.00    +0.000 C 
ATOM     64  O   ARG F   9      -2.136 -13.010 -22.709  0.00  0.00    +0.000 OA
ATOM     65  CB  ARG F   9      -0.543 -10.504 -23.957  0.00  0.00    +0.000 C 
ATOM     66  CG  ARG F   9      -0.805  -9.015 -23.863  0.00  0.00    +0.000 C 
ATOM     67  CD  ARG F   9      -0.032  -8.263 -24.930  0.00  0.00    +0.000 C 
ATOM     68  NE  ARG F   9       1.403  -8.521 -24.847  0.00  0.00    +0.000 N 
ATOM     69  HE  ARG F   9       1.797  -9.235 -25.438  0.00  0.00    +0.000 HD
ATOM     70  CZ  ARG F   9       2.235  -7.871 -24.040  0.00  0.00    +0.000 C 
ATOM     71  NH1 ARG F   9       1.777  -6.924 -23.233  0.00  0.00    +0.000 N 
ATOM     72 HH11 ARG F   9       0.792  -6.719 -23.204  0.00  0.00    +0.000 HD
ATOM     73 HH12 ARG F   9       2.379  -6.422 -22.612  0.00  0.00    +0.000 HD
ATOM     74  NH2 ARG F   9       3.525  -8.173 -24.034  0.00  0.00    +0.000 N 
ATOM     75 HH21 ARG F   9       4.147  -7.417 -24.263  0.00  0.00    +0.000 HD
ATOM     76 HH22 ARG F   9       3.838  -8.730 -23.252  0.00  0.00    +0.000 HD
ATOM     77  N   LEU F  10      -2.787 -11.129 -21.668  0.00  0.00    +0.000 N 
ATOM     78  H   LEU F  10      -2.533 -10.197 -21.369  0.00  0.00    +0.000 HD
ATOM     79  CA  LEU F  10      -4.026 -11.708 -21.162  0.00  0.00    +0.000 C 
ATOM     80  C   LEU F  10      -5.265 -11.213 -21.896  0.00  0.00    +0.000 C 
ATOM     81  O   LEU F  10      -5.340 -10.055 -22.302  0.00  0.00    +0.000 OA
ATOM     82  CB  LEU F  10      -4.173 -11.395 -19.671  0.00  0.00    +0.000 C 
ATOM     83  CG  LEU F  10      -2.956 -11.666 -18.782  0.00  0.00    +0.000 C 
ATOM     84  CD1 LEU F  10      -3.158 -11.054 -17.403  0.00  0.00    +0.000 C 
ATOM     85  CD2 LEU F  10      -2.685 -13.161 -18.681  0.00  0.00    +0.000 C 
ATOM     86  N   NME F  11      -6.238 -12.103 -22.061  0.00  0.00    +0.000 N 
ATOM     87  H   NME F  11      -6.074 -13.059 -21.782  0.00  0.00    +0.000 HD
ATOM     88  C   NME F  11      -7.568 -11.708 -22.501  0.00  0.00    +0.000 C 
TER 
REMARK  Name = /home/xianyang/aimnet2_score_pipelines/work/L1234-fixed-receptor-eint-20260921/L2/Q14145/prepared.pdb
REMARK                            x       y       z     vdW  Elec       q    Type
REMARK                         _______ _______ _______ _____ _____    ______ ____
ATOM      1  CH3 ACE G   1      -5.799 -10.360 -25.861  0.00  0.00    +0.000 C 
ATOM      2  C   ACE G   1      -5.419  -8.885 -25.802  0.00  0.00    +0.000 C 
ATOM      3  O   ACE G   1      -5.104  -8.278 -26.828  0.00  0.00    +0.000 OA
ATOM      4  N   ARG G   2      -5.452  -8.307 -24.606  0.00  0.00    +0.000 N 
ATOM      5  H   ARG G   2      -5.610  -8.879 -23.780  0.00  0.00    +0.000 HD
ATOM      6  CA  ARG G   2      -5.186  -6.881 -24.448  0.00  0.00    +0.000 C 
ATOM      7  C   ARG G   2      -4.346  -6.553 -23.217  0.00  0.00    +0.000 C 
ATOM      8  O   ARG G   2      -4.652  -6.990 -22.106  0.00  0.00    +0.000 OA
ATOM      9  CB  ARG G   2      -6.499  -6.100 -24.359  0.00  0.00    +0.000 C 
ATOM     10  CG  ARG G   2      -7.431  -6.266 -25.543  0.00  0.00    +0.000 C 
ATOM     11  CD  ARG G   2      -8.675  -5.413 -25.356  0.00  0.00    +0.000 C 
ATOM     12  NE  ARG G   2      -9.693  -5.694 -26.362  0.00  0.00    +0.000 N 
ATOM     13  HE  ARG G   2     -10.349  -6.430 -26.165  0.00  0.00    +0.000 HD
ATOM     14  CZ  ARG G   2      -9.812  -5.035 -27.508  0.00  0.00    +0.000 C 
ATOM     15  NH1 ARG G   2      -8.974  -4.051 -27.797  0.00  0.00    +0.000 N 
ATOM     16 HH11 ARG G   2      -9.077  -3.533 -28.643  0.00  0.00    +0.000 HD
ATOM     17 HH12 ARG G   2      -8.306  -3.745 -27.095  0.00  0.00    +0.000 HD
ATOM     18  NH2 ARG G   2     -10.771  -5.359 -28.364  0.00  0.00    +0.000 N 
ATOM     19 HH21 ARG G   2     -11.369  -6.148 -28.191  0.00  0.00    +0.000 HD
ATOM     20 HH22 ARG G   2     -10.822  -4.908 -29.257  0.00  0.00    +0.000 HD
ATOM     21  N   SER G   3      -3.289  -5.777 -23.425  0.00  0.00    +0.000 N 
ATOM     22  H   SER G   3      -3.010  -5.584 -24.378  0.00  0.00    +0.000 HD
ATOM     23  CA  SER G   3      -2.590  -5.118 -22.328  0.00  0.00    +0.000 C 
ATOM     24  C   SER G   3      -2.474  -3.638 -22.675  0.00  0.00    +0.000 C 
ATOM     25  O   SER G   3      -2.466  -3.274 -23.850  0.00  0.00    +0.000 OA
ATOM     26  CB  SER G   3      -1.208  -5.733 -22.087  0.00  0.00    +0.000 C 
ATOM     27  OG  SER G   3      -0.319  -5.452 -23.154  0.00  0.00    +0.000 OA
ATOM     28  HG  SER G   3      -0.643  -4.671 -23.632  0.00  0.00    +0.000 HD
ATOM     29  N   GLY G   4      -2.399  -2.785 -21.662  0.00  0.00    +0.000 N 
ATOM     30  H   GLY G   4      -2.515  -3.115 -20.709  0.00  0.00    +0.000 HD
ATOM     31  CA  GLY G   4      -2.352  -1.354 -21.898  0.00  0.00    +0.000 C 
ATOM     32  C   GLY G   4      -3.572  -0.890 -22.670  0.00  0.00    +0.000 C 
ATOM     33  O   GLY G   4      -3.477  -0.060 -23.574  0.00  0.00    +0.000 OA
ATOM     34  N   ALA G   5      -4.727  -1.438 -22.310  0.00  0.00    +0.000 N 
ATOM     35  H   ALA G   5      -4.758  -2.021 -21.488  0.00  0.00    +0.000 HD
ATOM     36  CA  ALA G   5      -5.985  -1.063 -22.939  0.00  0.00    +0.000 C 
ATOM     37  C   ALA G   5      -6.694   0.034 -22.150  0.00  0.00    +0.000 C 
ATOM     38  O   ALA G   5      -6.321   0.342 -21.015  0.00  0.00    +0.000 OA
ATOM     39  CB  ALA G   5      -6.887  -2.279 -23.074  0.00  0.00    +0.000 C 
ATOM     40  N   GLY G   6      -7.717   0.622 -22.761  0.00  0.00    +0.000 N 
ATOM     41  H   GLY G   6      -7.983   0.328 -23.695  0.00  0.00    +0.000 HD
ATOM     42  CA  GLY G   6      -8.574   1.570 -22.074  0.00  0.00    +0.000 C 
ATOM     43  C   GLY G   6      -9.840   0.891 -21.582  0.00  0.00    +0.000 C 
ATOM     44  O   GLY G   6     -10.645   0.408 -22.378  0.00  0.00    +0.000 OA
ATOM     45  N   NME G   7     -10.016   0.848 -20.267  0.00  0.00    +0.000 N 
ATOM     46  H   NME G   7      -9.296   1.229 -19.672  0.00  0.00    +0.000 HD
ATOM     47  C   NME G   7     -11.177   0.199 -19.671  0.00  0.00    +0.000 C 
TER 
REMARK  Name = /home/xianyang/aimnet2_score_pipelines/work/L1234-fixed-receptor-eint-20260921/L2/Q14145/prepared.pdb
REMARK                            x       y       z     vdW  Elec       q    Type
REMARK                         _______ _______ _______ _____ _____    ______ ____
ATOM      1  CH3 ACE H   1     -10.795  -0.132 -26.060  0.00  0.00    +0.000 C 
ATOM      2  C   ACE H   1      -9.294  -0.180 -26.285  0.00  0.00    +0.000 C 
ATOM      3  O   ACE H   1      -8.511   0.096 -25.378  0.00  0.00    +0.000 OA
ATOM      4  N   GLY H   2      -8.907  -0.533 -27.505  0.00  0.00    +0.000 N 
ATOM      5  H   GLY H   2      -9.614  -0.650 -28.209  0.00  0.00    +0.000 HD
ATOM      6  CA  GLY H   2      -7.512  -0.553 -27.896  0.00  0.00    +0.000 C 
ATOM      7  C   GLY H   2      -6.666  -1.508 -27.079  0.00  0.00    +0.000 C 
ATOM      8  O   GLY H   2      -7.158  -2.500 -26.540  0.00  0.00    +0.000 OA
ATOM      9  N   GLY H   3      -5.380  -1.197 -26.988  0.00  0.00    +0.000 N 
ATOM     10  H   GLY H   3      -5.030  -0.381 -27.482  0.00  0.00    +0.000 HD
ATOM     11  CA  GLY H   3      -4.447  -2.031 -26.262  0.00  0.00    +0.000 C 
ATOM     12  C   GLY H   3      -3.434  -2.677 -27.183  0.00  0.00    +0.000 C 
ATOM     13  O   GLY H   3      -3.262  -2.267 -28.334  0.00  0.00    +0.000 OA
ATOM     14  N   TYR H   4      -2.767  -3.701 -26.668  0.00  0.00    +0.000 N 
ATOM     15  H   TYR H   4      -2.888  -3.910 -25.687  0.00  0.00    +0.000 HD
ATOM     16  CA  TYR H   4      -1.714  -4.388 -27.397  0.00  0.00    +0.000 C 
ATOM     17  C   TYR H   4      -1.914  -5.888 -27.246  0.00  0.00    +0.000 C 
ATOM     18  O   TYR H   4      -1.915  -6.411 -26.132  0.00  0.00    +0.000 OA
ATOM     19  CB  TYR H   4      -0.356  -3.967 -26.841  0.00  0.00    +0.000 C 
ATOM     20  CG  TYR H   4       0.833  -4.623 -27.497  0.00  0.00    +0.000 A 
ATOM     21  CD1 TYR H   4       1.262  -4.224 -28.754  0.00  0.00    +0.000 A 
ATOM     22  CD2 TYR H   4       1.544  -5.622 -26.846  0.00  0.00    +0.000 A 
ATOM     23  CE1 TYR H   4       2.357  -4.813 -29.354  0.00  0.00    +0.000 A 
ATOM     24  CE2 TYR H   4       2.640  -6.217 -27.437  0.00  0.00    +0.000 A 
ATOM     25  CZ  TYR H   4       3.042  -5.807 -28.691  0.00  0.00    +0.000 A 
ATOM     26  OH  TYR H   4       4.134  -6.395 -29.285  0.00  0.00    +0.000 OA
ATOM     27  HH  TYR H   4       4.010  -7.360 -29.415  0.00  0.00    +0.000 HD
ATOM     28  N   ASP H   5      -2.096  -6.577 -28.367  0.00  0.00    +0.000 N 
ATOM     29  H   ASP H   5      -2.004  -6.134 -29.284  0.00  0.00    +0.000 HD
ATOM     30  CA  ASP H   5      -2.409  -8.002 -28.339  0.00  0.00    +0.000 C 
ATOM     31  C   ASP H   5      -1.150  -8.860 -28.326  0.00  0.00    +0.000 C 
ATOM     32  O   ASP H   5      -1.224 -10.086 -28.385  0.00  0.00    +0.000 OA
ATOM     33  CB  ASP H   5      -3.299  -8.382 -29.527  0.00  0.00    +0.000 C 
ATOM     34  CG  ASP H   5      -2.583  -8.259 -30.859  0.00  0.00    +0.000 C 
ATOM     35  OD1 ASP H   5      -1.470  -7.695 -30.892  0.00  0.00    +0.000 OA
ATOM     36  OD2 ASP H   5      -3.140  -8.723 -31.876  0.00  0.00    +0.000 OA
ATOM     37  N   GLY H   6       0.004  -8.210 -28.245  0.00  0.00    +0.000 N 
ATOM     38  H   GLY H   6      -0.014  -7.207 -28.370  0.00  0.00    +0.000 HD
ATOM     39  CA  GLY H   6       1.270  -8.918 -28.235  0.00  0.00    +0.000 C 
ATOM     40  C   GLY H   6       2.027  -8.756 -29.537  0.00  0.00    +0.000 C 
ATOM     41  O   GLY H   6       3.232  -8.997 -29.598  0.00  0.00    +0.000 OA
ATOM     42  N   GLN H   7       1.321  -8.340 -30.584  0.00  0.00    +0.000 N 
ATOM     43  H   GLN H   7       0.312  -8.192 -30.515  0.00  0.00    +0.000 HD
ATOM     44  CA  GLN H   7       1.939  -8.183 -31.893  0.00  0.00    +0.000 C 
ATOM     45  C   GLN H   7       1.610  -6.837 -32.528  0.00  0.00    +0.000 C 
ATOM     46  O   GLN H   7       2.438  -6.260 -33.229  0.00  0.00    +0.000 OA
ATOM     47  CB  GLN H   7       1.524  -9.324 -32.823  0.00  0.00    +0.000 C 
ATOM     48  CG  GLN H   7       2.154  -9.254 -34.203  0.00  0.00    +0.000 C 
ATOM     49  CD  GLN H   7       1.961 -10.531 -34.998  0.00  0.00    +0.000 C 
ATOM     50  OE1 GLN H   7       1.739 -11.603 -34.432  0.00  0.00    +0.000 OA
ATOM     51  NE2 GLN H   7       2.040 -10.421 -36.320  0.00  0.00    +0.000 N 
ATOM     52 HE21 GLN H   7       2.025  -9.487 -36.698  0.00  0.00    +0.000 HD
ATOM     53 HE22 GLN H   7       1.787 -11.236 -36.842  0.00  0.00    +0.000 HD
ATOM     54  N   ASP H   8       0.401  -6.340 -32.286  0.00  0.00    +0.000 N 
ATOM     55  H   ASP H   8      -0.309  -6.899 -31.818  0.00  0.00    +0.000 HD
ATOM     56  CA  ASP H   8      -0.008  -5.053 -32.838  0.00  0.00    +0.000 C 
ATOM     57  C   ASP H   8      -0.768  -4.218 -31.819  0.00  0.00    +0.000 C 
ATOM     58  O   ASP H   8      -1.371  -4.753 -30.890  0.00  0.00    +0.000 OA
ATOM     59  CB  ASP H   8      -0.897  -5.247 -34.071  0.00  0.00    +0.000 C 
ATOM     60  CG  ASP H   8      -0.359  -6.292 -35.025  0.00  0.00    +0.000 C 
ATOM     61  OD1 ASP H   8       0.633  -6.007 -35.727  0.00  0.00    +0.000 OA
ATOM     62  OD2 ASP H   8      -0.940  -7.397 -35.080  0.00  0.00    +0.000 OA
ATOM     63  N   GLN H   9      -0.738  -2.902 -32.001  0.00  0.00    +0.000 N 
ATOM     64  H   GLN H   9      -0.180  -2.515 -32.749  0.00  0.00    +0.000 HD
ATOM     65  CA  GLN H   9      -1.643  -2.023 -31.274  0.00  0.00    +0.000 C 
ATOM     66  C   GLN H   9      -3.035  -2.186 -31.861  0.00  0.00    +0.000 C 
ATOM     67  O   GLN H   9      -3.183  -2.455 -33.053  0.00  0.00    +0.000 OA
ATOM     68  CB  GLN H   9      -1.196  -0.564 -31.362  0.00  0.00    +0.000 C 
ATOM     69  CG  GLN H   9      -0.276  -0.128 -30.235  0.00  0.00    +0.000 C 
ATOM     70  CD  GLN H   9       1.134  -0.646 -30.399  0.00  0.00    +0.000 C 
ATOM     71  OE1 GLN H   9       1.493  -1.186 -31.446  0.00  0.00    +0.000 OA
ATOM     72  NE2 GLN H   9       1.947  -0.481 -29.364  0.00  0.00    +0.000 N 
ATOM     73 HE21 GLN H   9       2.866  -0.874 -29.458  0.00  0.00    +0.000 HD
ATOM     74 HE22 GLN H   9       1.554  -0.108 -28.511  0.00  0.00    +0.000 HD
ATOM     75  N   LEU H  10      -4.053  -2.023 -31.023  0.00  0.00    +0.000 N 
ATOM     76  H   LEU H  10      -3.844  -1.865 -30.044  0.00  0.00    +0.000 HD
ATOM     77  CA  LEU H  10      -5.419  -2.350 -31.412  0.00  0.00    +0.000 C 
ATOM     78  C   LEU H  10      -6.316  -1.127 -31.550  0.00  0.00    +0.000 C 
ATOM     79  O   LEU H  10      -6.126  -0.123 -30.865  0.00  0.00    +0.000 OA
ATOM     80  CB  LEU H  10      -6.031  -3.309 -30.390  0.00  0.00    +0.000 C 
ATOM     81  CG  LEU H  10      -5.246  -4.591 -30.111  0.00  0.00    +0.000 C 
ATOM     82  CD1 LEU H  10      -5.852  -5.333 -28.931  0.00  0.00    +0.000 C 
ATOM     83  CD2 LEU H  10      -5.209  -5.480 -31.344  0.00  0.00    +0.000 C 
ATOM     84  N   NME H  11      -7.296  -1.224 -32.442  0.00  0.00    +0.000 N 
ATOM     85  H   NME H  11      -7.340  -2.046 -33.026  0.00  0.00    +0.000 HD
ATOM     86  C   NME H  11      -8.343  -0.216 -32.545  0.00  0.00    +0.000 C 
TER 
REMARK  Name = /home/xianyang/aimnet2_score_pipelines/work/L1234-fixed-receptor-eint-20260921/L2/Q14145/prepared.pdb
REMARK                            x       y       z     vdW  Elec       q    Type
REMARK                         _______ _______ _______ _____ _____    ______ ____
ATOM      1  CH3 ACE I   1      -5.026   1.795 -33.220  0.00  0.00    +0.000 C 
ATOM      2  C   ACE I   1      -4.178   2.505 -32.177  0.00  0.00    +0.000 C 
ATOM      3  O   ACE I   1      -3.440   3.435 -32.502  0.00  0.00    +0.000 OA
ATOM      4  N   ARG I   2      -4.279   2.074 -30.925  0.00  0.00    +0.000 N 
ATOM      5  H   ARG I   2      -4.889   1.287 -30.718  0.00  0.00    +0.000 HD
ATOM      6  CA  ARG I   2      -3.524   2.716 -29.857  0.00  0.00    +0.000 C 
ATOM      7  C   ARG I   2      -3.450   1.864 -28.592  0.00  0.00    +0.000 C 
ATOM      8  O   ARG I   2      -4.418   1.203 -28.218  0.00  0.00    +0.000 OA
ATOM      9  CB  ARG I   2      -4.128   4.087 -29.537  0.00  0.00    +0.000 C 
ATOM     10  CG  ARG I   2      -5.564   4.030 -29.036  0.00  0.00    +0.000 C 
ATOM     11  CD  ARG I   2      -6.104   5.419 -28.727  0.00  0.00    +0.000 C 
ATOM     12  NE  ARG I   2      -6.598   6.109 -29.916  0.00  0.00    +0.000 N 
ATOM     13  HE  ARG I   2      -6.983   5.542 -30.652  0.00  0.00    +0.000 HD
ATOM     14  CZ  ARG I   2      -6.434   7.408 -30.149  0.00  0.00    +0.000 C 
ATOM     15  NH1 ARG I   2      -5.778   8.163 -29.279  0.00  0.00    +0.000 N 
ATOM     16 HH11 ARG I   2      -5.301   7.719 -28.498  0.00  0.00    +0.000 HD
ATOM     17 HH12 ARG I   2      -5.700   9.149 -29.425  0.00  0.00    +0.000 HD
ATOM     18  NH2 ARG I   2      -6.922   7.953 -31.255  0.00  0.00    +0.000 N 
ATOM     19 HH21 ARG I   2      -6.765   8.921 -31.456  0.00  0.00    +0.000 HD
ATOM     20 HH22 ARG I   2      -7.302   7.363 -31.957  0.00  0.00    +0.000 HD
ATOM     21  N   SER I   3      -2.290   1.884 -27.942  0.00  0.00    +0.000 N 
ATOM     22  H   SER I   3      -1.494   2.335 -28.381  0.00  0.00    +0.000 HD
ATOM     23  CA  SER I   3      -2.115   1.231 -26.650  0.00  0.00    +0.000 C 
ATOM     24  C   SER I   3      -1.533   2.232 -25.663  0.00  0.00    +0.000 C 
ATOM     25  O   SER I   3      -0.888   3.200 -26.064  0.00  0.00    +0.000 OA
ATOM     26  CB  SER I   3      -1.198   0.010 -26.766  0.00  0.00    +0.000 C 
ATOM     27  OG  SER I   3       0.128   0.389 -27.094  0.00  0.00    +0.000 OA
ATOM     28  HG  SER I   3       0.362   1.187 -26.604  0.00  0.00    +0.000 HD
ATOM     29  N   ALA I   4      -1.763   1.999 -24.376  0.00  0.00    +0.000 N 
ATOM     30  H   ALA I   4      -2.329   1.201 -24.105  0.00  0.00    +0.000 HD
ATOM     31  CA  ALA I   4      -1.326   2.931 -23.342  0.00  0.00    +0.000 C 
ATOM     32  C   ALA I   4      -2.108   4.236 -23.450  0.00  0.00    +0.000 C 
ATOM     33  O   ALA I   4      -1.574   5.319 -23.209  0.00  0.00    +0.000 OA
ATOM     34  CB  ALA I   4       0.168   3.191 -23.455  0.00  0.00    +0.000 C 
ATOM     35  N   LEU I   5      -3.380   4.120 -23.816  0.00  0.00    +0.000 N 
ATOM     36  H   LEU I   5      -3.794   3.202 -23.878  0.00  0.00    +0.000 HD
ATOM     37  CA  LEU I   5      -4.235   5.285 -23.993  0.00  0.00    +0.000 C 
ATOM     38  C   LEU I   5      -4.924   5.677 -22.693  0.00  0.00    +0.000 C 
ATOM     39  O   LEU I   5      -5.172   4.836 -21.832  0.00  0.00    +0.000 OA
ATOM     40  CB  LEU I   5      -5.293   5.010 -25.062  0.00  0.00    +0.000 C 
ATOM     41  CG  LEU I   5      -6.258   3.858 -24.768  0.00  0.00    +0.000 C 
ATOM     42  CD1 LEU I   5      -7.566   4.044 -25.528  0.00  0.00    +0.000 C 
ATOM     43  CD2 LEU I   5      -5.626   2.512 -25.110  0.00  0.00    +0.000 C 
ATOM     44  N   NME I   6      -5.233   6.961 -22.559  0.00  0.00    +0.000 N 
ATOM     45  H   NME I   6      -4.980   7.607 -23.289  0.00  0.00    +0.000 HD
ATOM     46  C   NME I   6      -6.023   7.434 -21.441  0.00  0.00    +0.000 C 
TER 
REMARK  Name = /home/xianyang/aimnet2_score_pipelines/work/L1234-fixed-receptor-eint-20260921/L2/Q14145/prepared.pdb
REMARK                            x       y       z     vdW  Elec       q    Type
REMARK                         _______ _______ _______ _____ _____    ______ ____
ATOM      1  CH3 ACE J   1      -3.210   9.732 -26.670  0.00  0.00    +0.000 C 
ATOM      2  C   ACE J   1      -2.993   8.244 -26.871  0.00  0.00    +0.000 C 
ATOM      3  O   ACE J   1      -3.909   7.511 -27.244  0.00  0.00    +0.000 OA
ATOM      4  N   GLY J   2      -1.766   7.800 -26.622  0.00  0.00    +0.000 N 
ATOM      5  H   GLY J   2      -1.045   8.481 -26.400  0.00  0.00    +0.000 HD
ATOM      6  CA  GLY J   2      -1.404   6.410 -26.816  0.00  0.00    +0.000 C 
ATOM      7  C   GLY J   2      -0.311   6.247 -27.853  0.00  0.00    +0.000 C 
ATOM      8  O   GLY J   2       0.178   7.223 -28.426  0.00  0.00    +0.000 OA
ATOM      9  N   TYR J   3       0.071   4.999 -28.096  0.00  0.00    +0.000 N 
ATOM     10  H   TYR J   3      -0.340   4.244 -27.560  0.00  0.00    +0.000 HD
ATOM     11  CA  TYR J   3       1.128   4.679 -29.042  0.00  0.00    +0.000 C 
ATOM     12  C   TYR J   3       0.560   3.752 -30.110  0.00  0.00    +0.000 C 
ATOM     13  O   TYR J   3      -0.057   2.739 -29.787  0.00  0.00    +0.000 OA
ATOM     14  CB  TYR J   3       2.289   4.011 -28.303  0.00  0.00    +0.000 C 
ATOM     15  CG  TYR J   3       3.525   3.777 -29.138  0.00  0.00    +0.000 A 
ATOM     16  CD1 TYR J   3       4.278   4.844 -29.612  0.00  0.00    +0.000 A 
ATOM     17  CD2 TYR J   3       3.953   2.488 -29.433  0.00  0.00    +0.000 A 
ATOM     18  CE1 TYR J   3       5.415   4.634 -30.372  0.00  0.00    +0.000 A 
ATOM     19  CE2 TYR J   3       5.092   2.269 -30.191  0.00  0.00    +0.000 A 
ATOM     20  CZ  TYR J   3       5.817   3.346 -30.656  0.00  0.00    +0.000 A 
ATOM     21  OH  TYR J   3       6.947   3.135 -31.409  0.00  0.00    +0.000 OA
ATOM     22  HH  TYR J   3       7.097   3.836 -32.047  0.00  0.00    +0.000 HD
ATOM     23  N   ASP J   4       0.752   4.103 -31.379  0.00  0.00    +0.000 N 
ATOM     24  H   ASP J   4       1.260   4.953 -31.617  0.00  0.00    +0.000 HD
ATOM     25  CA  ASP J   4       0.164   3.333 -32.476  0.00  0.00    +0.000 C 
ATOM     26  C   ASP J   4       1.155   2.360 -33.107  0.00  0.00    +0.000 C 
ATOM     27  O   ASP J   4       0.808   1.613 -34.021  0.00  0.00    +0.000 OA
ATOM     28  CB  ASP J   4      -0.415   4.263 -33.547  0.00  0.00    +0.000 C 
ATOM     29  CG  ASP J   4       0.660   4.928 -34.392  0.00  0.00    +0.000 C 
ATOM     30  OD1 ASP J   4       1.837   4.937 -33.973  0.00  0.00    +0.000 OA
ATOM     31  OD2 ASP J   4       0.323   5.449 -35.477  0.00  0.00    +0.000 OA
ATOM     32  N   GLY J   5       2.387   2.371 -32.613  0.00  0.00    +0.000 N 
ATOM     33  H   GLY J   5       2.612   3.041 -31.895  0.00  0.00    +0.000 HD
ATOM     34  CA  GLY J   5       3.417   1.496 -33.137  0.00  0.00    +0.000 C 
ATOM     35  C   GLY J   5       4.607   2.273 -33.659  0.00  0.00    +0.000 C 
ATOM     36  O   GLY J   5       5.741   1.798 -33.597  0.00  0.00    +0.000 OA
ATOM     37  N   HIS J   6       4.348   3.471 -34.175  0.00  0.00    +0.000 N 
ATOM     38  H   HIS J   6       3.380   3.791 -34.212  0.00  0.00    +0.000 HD
ATOM     39  CA  HIS J   6       5.408   4.336 -34.682  0.00  0.00    +0.000 C 
ATOM     40  C   HIS J   6       5.360   5.697 -34.002  0.00  0.00    +0.000 C 
ATOM     41  O   HIS J   6       6.388   6.351 -33.823  0.00  0.00    +0.000 OA
ATOM     42  CB  HIS J   6       5.276   4.535 -36.195  0.00  0.00    +0.000 C 
ATOM     43  CG  HIS J   6       4.891   3.298 -36.943  0.00  0.00    +0.000 A 
ATOM     44  ND1 HIS J   6       5.807   2.341 -37.325  0.00  0.00    +0.000 N 
ATOM     45  HD1 HIS J   6       6.783   2.341 -37.078  0.00  0.00    +0.000 HD
ATOM     46  CD2 HIS J   6       3.688   2.866 -37.392  0.00  0.00    +0.000 A 
ATOM     47  CE1 HIS J   6       5.185   1.371 -37.970  0.00  0.00    +0.000 A 
ATOM     48  NE2 HIS J   6       3.898   1.665 -38.024  0.00  0.00    +0.000 NA
ATOM     49  N   THR J   7       4.158   6.118 -33.623  0.00  0.00    +0.000 N 
ATOM     50  H   THR J   7       3.345   5.543 -33.797  0.00  0.00    +0.000 HD
ATOM     51  CA  THR J   7       3.938   7.489 -33.184  0.00  0.00    +0.000 C 
ATOM     52  C   THR J   7       3.209   7.586 -31.847  0.00  0.00    +0.000 C 
ATOM     53  O   THR J   7       2.286   6.820 -31.570  0.00  0.00    +0.000 OA
ATOM     54  CB  THR J   7       3.127   8.275 -34.236  0.00  0.00    +0.000 C 
ATOM     55  OG1 THR J   7       3.775   8.185 -35.512  0.00  0.00    +0.000 OA
ATOM     56  HG1 THR J   7       3.194   7.649 -36.065  0.00  0.00    +0.000 HD
ATOM     57  CG2 THR J   7       2.999   9.737 -33.835  0.00  0.00    +0.000 C 
ATOM     58  N   PHE J   8       3.633   8.535 -31.020  0.00  0.00    +0.000 N 
ATOM     59  H   PHE J   8       4.373   9.152 -31.312  0.00  0.00    +0.000 HD
ATOM     60  CA  PHE J   8       2.902   8.858 -29.806  0.00  0.00    +0.000 C 
ATOM     61  C   PHE J   8       1.775   9.816 -30.162  0.00  0.00    +0.000 C 
ATOM     62  O   PHE J   8       2.013  10.954 -30.555  0.00  0.00    +0.000 OA
ATOM     63  CB  PHE J   8       3.838   9.453 -28.757  0.00  0.00    +0.000 C 
ATOM     64  CG  PHE J   8       4.860   8.477 -28.248  0.00  0.00    +0.000 A 
ATOM     65  CD1 PHE J   8       4.577   7.660 -27.166  0.00  0.00    +0.000 A 
ATOM     66  CD2 PHE J   8       6.092   8.359 -28.863  0.00  0.00    +0.000 A 
ATOM     67  CE1 PHE J   8       5.512   6.753 -26.699  0.00  0.00    +0.000 A 
ATOM     68  CE2 PHE J   8       7.030   7.454 -28.401  0.00  0.00    +0.000 A 
ATOM     69  CZ  PHE J   8       6.740   6.652 -27.318  0.00  0.00    +0.000 A 
ATOM     70  N   LEU J   9       0.543   9.334 -30.036  0.00  0.00    +0.000 N 
ATOM     71  H   LEU J   9       0.420   8.402 -29.664  0.00  0.00    +0.000 HD
ATOM     72  CA  LEU J   9      -0.618  10.045 -30.557  0.00  0.00    +0.000 C 
ATOM     73  C   LEU J   9      -1.006  11.250 -29.715  0.00  0.00    +0.000 C 
ATOM     74  O   LEU J   9      -0.927  11.217 -28.490  0.00  0.00    +0.000 OA
ATOM     75  CB  LEU J   9      -1.811   9.092 -30.678  0.00  0.00    +0.000 C 
ATOM     76  CG  LEU J   9      -1.603   7.866 -31.569  0.00  0.00    +0.000 C 
ATOM     77  CD1 LEU J   9      -2.832   6.972 -31.548  0.00  0.00    +0.000 C 
ATOM     78  CD2 LEU J   9      -1.273   8.294 -32.990  0.00  0.00    +0.000 C 
ATOM     79  N   NME J  10      -1.422  12.316 -30.389  0.00  0.00    +0.000 N 
ATOM     80  H   NME J  10      -1.391  12.295 -31.397  0.00  0.00    +0.000 HD
ATOM     81  C   NME J  10      -1.983  13.480 -29.722  0.00  0.00    +0.000 C 
TER 
REMARK  Name = /home/xianyang/aimnet2_score_pipelines/work/L1234-fixed-receptor-eint-20260921/L2/Q14145/prepared.pdb
REMARK                            x       y       z     vdW  Elec       q    Type
REMARK                         _______ _______ _______ _____ _____    ______ ____
ATOM      1  CH3 ACE K   1       1.395  13.585 -28.522  0.00  0.00    +0.000 C 
ATOM      2  C   ACE K   1       2.042  12.987 -27.289  0.00  0.00    +0.000 C 
ATOM      3  O   ACE K   1       3.095  13.450 -26.849  0.00  0.00    +0.000 OA
ATOM      4  N   ARG K   2       1.414  11.958 -26.730  0.00  0.00    +0.000 N 
ATOM      5  H   ARG K   2       0.572  11.595 -27.175  0.00  0.00    +0.000 HD
ATOM      6  CA  ARG K   2       1.898  11.347 -25.498  0.00  0.00    +0.000 C 
ATOM      7  C   ARG K   2       1.142  10.058 -25.198  0.00  0.00    +0.000 C 
ATOM      8  O   ARG K   2      -0.013   9.901 -25.594  0.00  0.00    +0.000 OA
ATOM      9  CB  ARG K   2       1.741  12.319 -24.328  0.00  0.00    +0.000 C 
ATOM     10  CG  ARG K   2       0.299  12.533 -23.897  0.00  0.00    +0.000 C 
ATOM     11  CD  ARG K   2       0.159  13.706 -22.934  0.00  0.00    +0.000 C 
ATOM     12  NE  ARG K   2       0.292  14.991 -23.614  0.00  0.00    +0.000 N 
ATOM     13  HE  ARG K   2       0.730  14.993 -24.522  0.00  0.00    +0.000 HD
ATOM     14  CZ  ARG K   2      -0.066  16.157 -23.087  0.00  0.00    +0.000 C 
ATOM     15  NH1 ARG K   2      -0.588  16.207 -21.869  0.00  0.00    +0.000 N 
ATOM     16 HH11 ARG K   2      -1.104  15.400 -21.544  0.00  0.00    +0.000 HD
ATOM     17 HH12 ARG K   2      -0.460  17.023 -21.295  0.00  0.00    +0.000 HD
ATOM     18  NH2 ARG K   2       0.091  17.276 -23.780  0.00  0.00    +0.000 N 
ATOM     19 HH21 ARG K   2       0.496  17.240 -24.699  0.00  0.00    +0.000 HD
ATOM     20 HH22 ARG K   2      -0.231  18.143 -23.389  0.00  0.00    +0.000 HD
ATOM     21  N   SER K   3       1.801   9.140 -24.497  0.00  0.00    +0.000 N 
ATOM     22  H   SER K   3       2.780   9.295 -24.284  0.00  0.00    +0.000 HD
ATOM     23  CA  SER K   3       1.178   7.876 -24.124  0.00  0.00    +0.000 C 
ATOM     24  C   SER K   3       1.223   7.667 -22.614  0.00  0.00    +0.000 C 
ATOM     25  O   SER K   3       1.851   8.439 -21.888  0.00  0.00    +0.000 OA
ATOM     26  CB  SER K   3       1.854   6.703 -24.841  0.00  0.00    +0.000 C 
ATOM     27  OG  SER K   3       3.195   6.543 -24.413  0.00  0.00    +0.000 OA
ATOM     28  HG  SER K   3       3.216   6.123 -23.549  0.00  0.00    +0.000 HD
ATOM     29  N   GLY K   4       0.541   6.628 -22.145  0.00  0.00    +0.000 N 
ATOM     30  H   GLY K   4      -0.050   6.089 -22.768  0.00  0.00    +0.000 HD
ATOM     31  CA  GLY K   4       0.547   6.276 -20.736  0.00  0.00    +0.000 C 
ATOM     32  C   GLY K   4       0.105   7.366 -19.774  0.00  0.00    +0.000 C 
ATOM     33  O   GLY K   4       0.672   7.504 -18.691  0.00  0.00    +0.000 OA
ATOM     34  N   VAL K   5      -0.913   8.133 -20.159  0.00  0.00    +0.000 N 
ATOM     35  H   VAL K   5      -1.402   7.905 -21.009  0.00  0.00    +0.000 HD
ATOM     36  CA  VAL K   5      -1.449   9.180 -19.293  0.00  0.00    +0.000 C 
ATOM     37  C   VAL K   5      -2.458   8.619 -18.300  0.00  0.00    +0.000 C 
ATOM     38  O   VAL K   5      -2.933   7.494 -18.449  0.00  0.00    +0.000 OA
ATOM     39  CB  VAL K   5      -2.157  10.294 -20.096  0.00  0.00    +0.000 C 
ATOM     40  CG1 VAL K   5      -1.208  10.914 -21.115  0.00  0.00    +0.000 C 
ATOM     41  CG2 VAL K   5      -3.411   9.752 -20.772  0.00  0.00    +0.000 C 
ATOM     42  N   GLY K   6      -2.770   9.415 -17.282  0.00  0.00    +0.000 N 
ATOM     43  H   GLY K   6      -2.307  10.316 -17.190  0.00  0.00    +0.000 HD
ATOM     44  CA  GLY K   6      -3.884   9.137 -16.394  0.00  0.00    +0.000 C 
ATOM     45  C   GLY K   6      -4.958  10.184 -16.624  0.00  0.00    +0.000 C 
ATOM     46  O   GLY K   6      -4.646  11.356 -16.824  0.00  0.00    +0.000 OA
ATOM     47  N   NME K   7      -6.221   9.768 -16.608  0.00  0.00    +0.000 N 
ATOM     48  H   NME K   7      -6.409   8.786 -16.484  0.00  0.00    +0.000 HD
ATOM     49  C   NME K   7      -7.323  10.675 -16.913  0.00  0.00    +0.000 C 
TER 
