REMARK  Name = /data/user_data/xianyang/t3-aimnet-affinity-balanced/L1/Q07343/pocket.pdb
REMARK                            x       y       z     vdW  Elec       q    Type
REMARK                         _______ _______ _______ _____ _____    ______ ____
ATOM      1  N   TYR A   1      44.335  11.627  62.431  0.00  0.00    +0.000 N 
ATOM      2  CA  TYR A   1      44.588  10.426  61.636  0.00  0.00    +0.000 C 
ATOM      3  C   TYR A   1      43.881  10.452  60.272  0.00  0.00    +0.000 C 
ATOM      4  O   TYR A   1      44.493  10.165  59.254  0.00  0.00    +0.000 OA
ATOM      5  CB  TYR A   1      44.207   9.161  62.424  0.00  0.00    +0.000 C 
ATOM      6  CG  TYR A   1      44.420   7.871  61.669  0.00  0.00    +0.000 A 
ATOM      7  CD2 TYR A   1      45.610   7.141  61.809  0.00  0.00    +0.000 A 
ATOM      8  CD1 TYR A   1      43.450   7.382  60.805  0.00  0.00    +0.000 A 
ATOM      9  CE2 TYR A   1      45.820   5.956  61.119  0.00  0.00    +0.000 A 
ATOM     10  CE1 TYR A   1      43.659   6.180  60.087  0.00  0.00    +0.000 A 
ATOM     11  CZ  TYR A   1      44.850   5.474  60.245  0.00  0.00    +0.000 A 
ATOM     12  OH  TYR A   1      45.061   4.284  59.545  0.00  0.00    +0.000 OA
ATOM     13  N   HIS A   2      42.607  10.806  60.256  0.00  0.00    +0.000 N 
ATOM     14  CA  HIS A   2      41.820  10.793  59.038  0.00  0.00    +0.000 C 
ATOM     15  C   HIS A   2      41.921  12.079  58.188  0.00  0.00    +0.000 C 
ATOM     16  O   HIS A   2      40.915  12.705  57.863  0.00  0.00    +0.000 OA
ATOM     17  CB  HIS A   2      40.366  10.459  59.398  0.00  0.00    +0.000 C 
ATOM     18  CG  HIS A   2      40.178   9.059  59.892  0.00  0.00    +0.000 A 
ATOM     19  ND1 HIS A   2      39.808   8.768  61.187  0.00  0.00    +0.000 N 
ATOM     20  CD2 HIS A   2      40.278   7.867  59.258  0.00  0.00    +0.000 A 
ATOM     21  CE1 HIS A   2      39.698   7.459  61.333  0.00  0.00    +0.000 A 
ATOM     22  NE2 HIS A   2      39.993   6.886  60.184  0.00  0.00    +0.000 NA
ATOM     23  H   TYR A   1      44.594  12.453  61.891  0.00  0.00    +0.000 HD
ATOM     24  H   TYR A   1      44.890  11.592  63.286  0.00  0.00    +0.000 HD
ATOM     25  H   TYR A   1      43.345  11.674  62.670  0.00  0.00    +0.000 HD
ATOM     26  H   TYR A   1      44.405   3.963  58.958  0.00  0.00    +0.000 HD
ATOM     27  H   HIS A   2      42.179  11.087  61.097  0.00  0.00    +0.000 HD
ATOM     28  H   HIS A   2      39.650   9.433  61.895  0.00  0.00    +0.000 HD
TER 
REMARK  Name = /data/user_data/xianyang/t3-aimnet-affinity-balanced/L1/Q07343/pocket.pdb
REMARK                            x       y       z     vdW  Elec       q    Type
REMARK                         _______ _______ _______ _____ _____    ______ ____
ATOM      1  N   ASP B   1      37.933   8.340  52.799  0.00  0.00    +0.000 N 
ATOM      2  CA  ASP B   1      37.718   9.007  54.118  0.00  0.00    +0.000 C 
ATOM      3  C   ASP B   1      37.539  10.526  54.005  0.00  0.00    +0.000 C 
ATOM      4  O   ASP B   1      37.665  11.244  55.002  0.00  0.00    +0.000 OA
ATOM      5  CB  ASP B   1      38.874   8.758  55.104  0.00  0.00    +0.000 C 
ATOM      6  CG  ASP B   1      38.744   7.458  55.864  0.00  0.00    +0.000 C 
ATOM      7  OD1 ASP B   1      37.593   7.006  56.121  0.00  0.00    +0.000 OA
ATOM      8  OD2 ASP B   1      39.758   6.815  56.260  0.00  0.00    +0.000 OA
ATOM      9  H   ASP B   1      37.142   8.536  52.186  0.00  0.00    +0.000 HD
ATOM     10  H   ASP B   1      38.015   7.333  52.937  0.00  0.00    +0.000 HD
ATOM     11  H   ASP B   1      38.789   8.696  52.374  0.00  0.00    +0.000 HD
TER 
REMARK  Name = /data/user_data/xianyang/t3-aimnet-affinity-balanced/L1/Q07343/pocket.pdb
REMARK                            x       y       z     vdW  Elec       q    Type
REMARK                         _______ _______ _______ _____ _____    ______ ____
ATOM      1  N   HIS C   1      36.163  13.544  56.654  0.00  0.00    +0.000 N 
ATOM      2  CA  HIS C   1      36.038  12.810  57.918  0.00  0.00    +0.000 C 
ATOM      3  C   HIS C   1      36.163  13.822  59.064  0.00  0.00    +0.000 C 
ATOM      4  O   HIS C   1      37.111  14.579  59.067  0.00  0.00    +0.000 OA
ATOM      5  CB  HIS C   1      37.128  11.751  57.999  0.00  0.00    +0.000 C 
ATOM      6  CG  HIS C   1      36.839  10.657  58.973  0.00  0.00    +0.000 A 
ATOM      7  ND1 HIS C   1      36.814  10.865  60.326  0.00  0.00    +0.000 N 
ATOM      8  CD2 HIS C   1      36.546   9.350  58.788  0.00  0.00    +0.000 A 
ATOM      9  CE1 HIS C   1      36.531   9.731  60.940  0.00  0.00    +0.000 A 
ATOM     10  NE2 HIS C   1      36.360   8.796  60.026  0.00  0.00    +0.000 NA
ATOM     11  H   HIS C   1      36.083  12.893  55.873  0.00  0.00    +0.000 HD
ATOM     12  H   HIS C   1      37.071  14.008  56.618  0.00  0.00    +0.000 HD
ATOM     13  H   HIS C   1      35.422  14.242  56.591  0.00  0.00    +0.000 HD
ATOM     14  H   HIS C   1      36.981  11.727  60.772  0.00  0.00    +0.000 HD
TER 
REMARK  Name = /data/user_data/xianyang/t3-aimnet-affinity-balanced/L1/Q07343/pocket.pdb
REMARK                            x       y       z     vdW  Elec       q    Type
REMARK                         _______ _______ _______ _____ _____    ______ ____
ATOM      1  N   GLU D   1      30.934   6.457  55.514  0.00  0.00    +0.000 N 
ATOM      2  CA  GLU D   1      31.328   5.845  54.264  0.00  0.00    +0.000 C 
ATOM      3  C   GLU D   1      30.374   6.314  53.153  0.00  0.00    +0.000 C 
ATOM      4  O   GLU D   1      30.804   6.629  52.022  0.00  0.00    +0.000 OA
ATOM      5  CB  GLU D   1      31.364   4.318  54.434  0.00  0.00    +0.000 C 
ATOM      6  CG  GLU D   1      32.410   3.836  55.459  0.00  0.00    +0.000 C 
ATOM      7  CD  GLU D   1      32.014   4.025  56.928  0.00  0.00    +0.000 C 
ATOM      8  OE1 GLU D   1      30.805   4.069  57.257  0.00  0.00    +0.000 OA
ATOM      9  OE2 GLU D   1      32.920   4.111  57.775  0.00  0.00    +0.000 OA
ATOM     10  H   GLU D   1      30.909   7.471  55.403  0.00  0.00    +0.000 HD
ATOM     11  H   GLU D   1      31.607   6.210  56.240  0.00  0.00    +0.000 HD
ATOM     12  H   GLU D   1      30.008   6.121  55.780  0.00  0.00    +0.000 HD
TER 
REMARK  Name = /data/user_data/xianyang/t3-aimnet-affinity-balanced/L1/Q07343/pocket.pdb
REMARK                            x       y       z     vdW  Elec       q    Type
REMARK                         _______ _______ _______ _____ _____    ______ ____
ATOM      1  N   THR E   1      34.589  -0.385  53.586  0.00  0.00    +0.000 N 
ATOM      2  CA  THR E   1      35.596   0.046  54.583  0.00  0.00    +0.000 C 
ATOM      3  C   THR E   1      34.976   0.311  55.958  0.00  0.00    +0.000 C 
ATOM      4  O   THR E   1      35.662   0.714  56.870  0.00  0.00    +0.000 OA
ATOM      5  CB  THR E   1      36.364   1.304  54.151  0.00  0.00    +0.000 C 
ATOM      6  OG1 THR E   1      35.483   2.448  54.023  0.00  0.00    +0.000 OA
ATOM      7  CG2 THR E   1      37.005   1.120  52.757  0.00  0.00    +0.000 C 
ATOM      8  N   ASP E   2      33.668   0.146  56.066  0.00  0.00    +0.000 N 
ATOM      9  CA  ASP E   2      32.911   0.282  57.318  0.00  0.00    +0.000 C 
ATOM     10  C   ASP E   2      33.254  -0.951  58.161  0.00  0.00    +0.000 C 
ATOM     11  O   ASP E   2      32.940  -2.097  57.775  0.00  0.00    +0.000 OA
ATOM     12  CB  ASP E   2      31.429   0.310  56.951  0.00  0.00    +0.000 C 
ATOM     13  CG  ASP E   2      30.511   0.446  58.125  0.00  0.00    +0.000 C 
ATOM     14  OD2 ASP E   2      30.956   0.372  59.297  0.00  0.00    +0.000 OA
ATOM     15  OD1 ASP E   2      29.282   0.633  57.935  0.00  0.00    +0.000 OA
ATOM     16  N   MET E   3      33.908  -0.710  59.295  0.00  0.00    +0.000 N 
ATOM     17  CA  MET E   3      34.374  -1.755  60.191  0.00  0.00    +0.000 C 
ATOM     18  C   MET E   3      33.283  -2.680  60.701  0.00  0.00    +0.000 C 
ATOM     19  O   MET E   3      33.574  -3.808  61.098  0.00  0.00    +0.000 OA
ATOM     20  CB  MET E   3      35.102  -1.144  61.409  0.00  0.00    +0.000 C 
ATOM     21  CG  MET E   3      36.590  -0.920  61.180  0.00  0.00    +0.000 C 
ATOM     22  SD  MET E   3      37.447  -2.451  60.713  0.00  0.00    +0.000 S 
ATOM     23  CE  MET E   3      37.278  -3.242  62.140  0.00  0.00    +0.000 C 
ATOM     24  H   THR E   1      35.047  -0.549  52.689  0.00  0.00    +0.000 HD
ATOM     25  H   THR E   1      33.883   0.343  53.479  0.00  0.00    +0.000 HD
ATOM     26  H   THR E   1      34.144  -1.246  53.903  0.00  0.00    +0.000 HD
ATOM     27  H   THR E   1      34.826   2.274  53.331  0.00  0.00    +0.000 HD
ATOM     28  H   ASP E   2      33.167  -0.084  55.251  0.00  0.00    +0.000 HD
ATOM     29  H   MET E   3      34.086   0.227  59.540  0.00  0.00    +0.000 HD
TER 
REMARK  Name = /data/user_data/xianyang/t3-aimnet-affinity-balanced/L1/Q07343/pocket.pdb
REMARK                            x       y       z     vdW  Elec       q    Type
REMARK                         _______ _______ _______ _____ _____    ______ ____
ATOM      1  N   HIS F   1      40.227  -2.899  51.835  0.00  0.00    +0.000 N 
ATOM      2  CA  HIS F   1      39.977  -3.013  53.258  0.00  0.00    +0.000 C 
ATOM      3  C   HIS F   1      41.287  -3.332  53.953  0.00  0.00    +0.000 C 
ATOM      4  O   HIS F   1      41.544  -2.798  55.008  0.00  0.00    +0.000 OA
ATOM      5  CB  HIS F   1      38.903  -4.060  53.531  0.00  0.00    +0.000 C 
ATOM      6  CG  HIS F   1      38.659  -4.306  54.986  0.00  0.00    +0.000 A 
ATOM      7  ND1 HIS F   1      38.501  -3.286  55.897  0.00  0.00    +0.000 N 
ATOM      8  CD2 HIS F   1      38.561  -5.455  55.690  0.00  0.00    +0.000 A 
ATOM      9  CE1 HIS F   1      38.305  -3.793  57.098  0.00  0.00    +0.000 A 
ATOM     10  NE2 HIS F   1      38.342  -5.110  57.001  0.00  0.00    +0.000 NA
ATOM     11  H   HIS F   1      39.354  -2.684  51.353  0.00  0.00    +0.000 HD
ATOM     12  H   HIS F   1      40.602  -3.780  51.484  0.00  0.00    +0.000 HD
ATOM     13  H   HIS F   1      40.901  -2.152  51.667  0.00  0.00    +0.000 HD
ATOM     14  H   HIS F   1      38.530  -2.325  55.684  0.00  0.00    +0.000 HD
TER 
REMARK  Name = /data/user_data/xianyang/t3-aimnet-affinity-balanced/L1/Q07343/pocket.pdb
REMARK                            x       y       z     vdW  Elec       q    Type
REMARK                         _______ _______ _______ _____ _____    ______ ____
ATOM      1  N   ASP G   1      43.472  -0.224  54.088  0.00  0.00    +0.000 N 
ATOM      2  CA  ASP G   1      42.931   0.514  55.238  0.00  0.00    +0.000 C 
ATOM      3  C   ASP G   1      43.442  -0.017  56.592  0.00  0.00    +0.000 C 
ATOM      4  O   ASP G   1      43.644   0.744  57.528  0.00  0.00    +0.000 OA
ATOM      5  CB  ASP G   1      41.399   0.424  55.229  0.00  0.00    +0.000 C 
ATOM      6  CG  ASP G   1      40.722   1.688  55.739  0.00  0.00    +0.000 C 
ATOM      7  OD1 ASP G   1      39.469   1.692  55.842  0.00  0.00    +0.000 OA
ATOM      8  OD2 ASP G   1      41.350   2.713  56.061  0.00  0.00    +0.000 OA
ATOM      9  N   LEU G   2      43.643  -1.322  56.696  0.00  0.00    +0.000 N 
ATOM     10  CA  LEU G   2      44.171  -1.936  57.920  0.00  0.00    +0.000 C 
ATOM     11  C   LEU G   2      45.623  -2.377  57.747  0.00  0.00    +0.000 C 
ATOM     12  O   LEU G   2      46.054  -3.345  58.356  0.00  0.00    +0.000 OA
ATOM     13  CB  LEU G   2      43.314  -3.132  58.321  0.00  0.00    +0.000 C 
ATOM     14  CG  LEU G   2      41.933  -2.783  58.844  0.00  0.00    +0.000 C 
ATOM     15  CD1 LEU G   2      41.041  -3.959  58.664  0.00  0.00    +0.000 C 
ATOM     16  CD2 LEU G   2      41.986  -2.359  60.286  0.00  0.00    +0.000 C 
ATOM     17  H   ASP G   1      43.100   0.171  53.225  0.00  0.00    +0.000 HD
ATOM     18  H   ASP G   1      43.203  -1.205  54.157  0.00  0.00    +0.000 HD
ATOM     19  H   ASP G   1      44.489  -0.150  54.085  0.00  0.00    +0.000 HD
ATOM     20  H   LEU G   2      43.431  -1.899  55.927  0.00  0.00    +0.000 HD
TER 
REMARK  Name = /data/user_data/xianyang/t3-aimnet-affinity-balanced/L1/Q07343/pocket.pdb
REMARK                            x       y       z     vdW  Elec       q    Type
REMARK                         _______ _______ _______ _____ _____    ______ ____
ATOM      1  N   ASN H   1      48.435  -0.357  58.364  0.00  0.00    +0.000 N 
ATOM      2  CA  ASN H   1      49.456   0.303  59.195  0.00  0.00    +0.000 C 
ATOM      3  C   ASN H   1      50.352  -0.688  59.963  0.00  0.00    +0.000 C 
ATOM      4  O   ASN H   1      51.569  -0.551  59.912  0.00  0.00    +0.000 OA
ATOM      5  CB  ASN H   1      48.908   1.309  60.219  0.00  0.00    +0.000 C 
ATOM      6  CG  ASN H   1      48.089   2.443  59.619  0.00  0.00    +0.000 C 
ATOM      7  OD1 ASN H   1      47.205   3.003  60.321  0.00  0.00    +0.000 OA
ATOM      8  ND2 ASN H   1      48.377   2.829  58.365  0.00  0.00    +0.000 N 
ATOM      9  N   PRO H   2      49.795  -1.670  60.677  0.00  0.00    +0.000 N 
ATOM     10  CA  PRO H   2      50.650  -2.581  61.449  0.00  0.00    +0.000 C 
ATOM     11  C   PRO H   2      51.520  -3.509  60.606  0.00  0.00    +0.000 C 
ATOM     12  O   PRO H   2      52.370  -4.158  61.207  0.00  0.00    +0.000 OA
ATOM     13  CB  PRO H   2      49.656  -3.372  62.323  0.00  0.00    +0.000 C 
ATOM     14  CG  PRO H   2      48.381  -2.663  62.219  0.00  0.00    +0.000 C 
ATOM     15  CD  PRO H   2      48.375  -2.030  60.839  0.00  0.00    +0.000 C 
ATOM     16  H   ASN H   1      48.888  -1.003  57.718  0.00  0.00    +0.000 HD
ATOM     17  H   ASN H   1      47.920   0.347  57.835  0.00  0.00    +0.000 HD
ATOM     18  H   ASN H   1      47.790  -0.872  58.963  0.00  0.00    +0.000 HD
ATOM     19  H   ASN H   1      49.077   2.361  57.854  0.00  0.00    +0.000 HD
ATOM     20  H   ASN H   1      47.889   3.580  57.957  0.00  0.00    +0.000 HD
TER 
REMARK  Name = /data/user_data/xianyang/t3-aimnet-affinity-balanced/L1/Q07343/pocket.pdb
REMARK                            x       y       z     vdW  Elec       q    Type
REMARK                         _______ _______ _______ _____ _____    ______ ____
ATOM      1  N   TYR I   1      54.530   2.429  61.464  0.00  0.00    +0.000 N 
ATOM      2  CA  TYR I   1      53.433   1.932  62.276  0.00  0.00    +0.000 C 
ATOM      3  C   TYR I   1      53.253   2.782  63.533  0.00  0.00    +0.000 C 
ATOM      4  O   TYR I   1      52.145   3.230  63.818  0.00  0.00    +0.000 OA
ATOM      5  CB  TYR I   1      53.676   0.441  62.593  0.00  0.00    +0.000 C 
ATOM      6  CG  TYR I   1      52.691  -0.250  63.510  0.00  0.00    +0.000 A 
ATOM      7  CD1 TYR I   1      51.394   0.220  63.707  0.00  0.00    +0.000 A 
ATOM      8  CD2 TYR I   1      53.070  -1.396  64.185  0.00  0.00    +0.000 A 
ATOM      9  CE1 TYR I   1      50.511  -0.448  64.569  0.00  0.00    +0.000 A 
ATOM     10  CE2 TYR I   1      52.202  -2.056  65.032  0.00  0.00    +0.000 A 
ATOM     11  CZ  TYR I   1      50.934  -1.592  65.224  0.00  0.00    +0.000 A 
ATOM     12  OH  TYR I   1      50.117  -2.287  66.083  0.00  0.00    +0.000 OA
ATOM     13  H   TYR I   1      54.629   1.846  60.633  0.00  0.00    +0.000 HD
ATOM     14  H   TYR I   1      55.394   2.400  62.005  0.00  0.00    +0.000 HD
ATOM     15  H   TYR I   1      54.337   3.391  61.184  0.00  0.00    +0.000 HD
ATOM     16  H   TYR I   1      49.240  -1.994  66.236  0.00  0.00    +0.000 HD
TER 
REMARK  Name = /data/user_data/xianyang/t3-aimnet-affinity-balanced/L1/Q07343/pocket.pdb
REMARK                            x       y       z     vdW  Elec       q    Type
REMARK                         _______ _______ _______ _____ _____    ______ ____
ATOM      1  N   TRP J   1      51.667   6.112  62.847  0.00  0.00    +0.000 N 
ATOM      2  CA  TRP J   1      50.233   5.897  62.585  0.00  0.00    +0.000 C 
ATOM      3  C   TRP J   1      49.449   5.698  63.866  0.00  0.00    +0.000 C 
ATOM      4  O   TRP J   1      48.340   6.222  64.002  0.00  0.00    +0.000 OA
ATOM      5  CB  TRP J   1      49.985   4.695  61.661  0.00  0.00    +0.000 C 
ATOM      6  CG  TRP J   1      50.371   4.942  60.264  0.00  0.00    +0.000 C 
ATOM      7  CD1 TRP J   1      51.219   4.190  59.518  0.00  0.00    +0.000 C 
ATOM      8  CD2 TRP J   1      49.931   6.013  59.428  0.00  0.00    +0.000 A 
ATOM      9  NE1 TRP J   1      51.349   4.725  58.263  0.00  0.00    +0.000 NA
ATOM     10  CE2 TRP J   1      50.565   5.850  58.178  0.00  0.00    +0.000 A 
ATOM     11  CE3 TRP J   1      49.059   7.095  59.605  0.00  0.00    +0.000 A 
ATOM     12  CZ2 TRP J   1      50.355   6.723  57.100  0.00  0.00    +0.000 A 
ATOM     13  CZ3 TRP J   1      48.852   7.984  58.531  0.00  0.00    +0.000 A 
ATOM     14  CH2 TRP J   1      49.496   7.790  57.302  0.00  0.00    +0.000 A 
ATOM     15  N   THR J   2      50.030   4.937  64.796  0.00  0.00    +0.000 N 
ATOM     16  CA  THR J   2      49.424   4.665  66.115  0.00  0.00    +0.000 C 
ATOM     17  C   THR J   2      49.284   5.949  66.933  0.00  0.00    +0.000 C 
ATOM     18  O   THR J   2      48.259   6.174  67.553  0.00  0.00    +0.000 OA
ATOM     19  CB  THR J   2      50.294   3.664  66.918  0.00  0.00    +0.000 C 
ATOM     20  OG1 THR J   2      50.353   2.387  66.239  0.00  0.00    +0.000 OA
ATOM     21  CG2 THR J   2      49.677   3.387  68.281  0.00  0.00    +0.000 C 
ATOM     22  N   ASP J   3      50.311   6.787  66.948  0.00  0.00    +0.000 N 
ATOM     23  CA  ASP J   3      50.260   8.061  67.698  0.00  0.00    +0.000 C 
ATOM     24  C   ASP J   3      49.098   8.919  67.216  0.00  0.00    +0.000 C 
ATOM     25  O   ASP J   3      48.478   9.640  67.978  0.00  0.00    +0.000 OA
ATOM     26  CB  ASP J   3      51.561   8.874  67.497  0.00  0.00    +0.000 C 
ATOM     27  CG  ASP J   3      52.752   8.329  68.308  0.00  0.00    +0.000 C 
ATOM     28  OD2 ASP J   3      52.553   7.499  69.223  0.00  0.00    +0.000 OA
ATOM     29  OD1 ASP J   3      53.942   8.685  68.083  0.00  0.00    +0.000 OA
ATOM     30  H   TRP J   1      52.159   6.241  61.963  0.00  0.00    +0.000 HD
ATOM     31  H   TRP J   1      52.049   5.301  63.333  0.00  0.00    +0.000 HD
ATOM     32  H   TRP J   1      51.786   6.943  63.427  0.00  0.00    +0.000 HD
ATOM     33  H   THR J   2      50.906   4.537  64.592  0.00  0.00    +0.000 HD
ATOM     34  H   THR J   2      49.459   2.017  66.169  0.00  0.00    +0.000 HD
ATOM     35  H   ASP J   3      51.127   6.556  66.448  0.00  0.00    +0.000 HD
TER 
REMARK  Name = /data/user_data/xianyang/t3-aimnet-affinity-balanced/L1/Q07343/pocket.pdb
REMARK                            x       y       z     vdW  Elec       q    Type
REMARK                         _______ _______ _______ _____ _____    ______ ____
ATOM      1  N   ILE K   1      46.193   7.792  65.431  0.00  0.00    +0.000 N 
ATOM      2  CA  ILE K   1      44.875   7.194  65.682  0.00  0.00    +0.000 C 
ATOM      3  C   ILE K   1      44.489   7.382  67.146  0.00  0.00    +0.000 C 
ATOM      4  O   ILE K   1      43.322   7.653  67.435  0.00  0.00    +0.000 OA
ATOM      5  CB  ILE K   1      44.831   5.668  65.287  0.00  0.00    +0.000 C 
ATOM      6  CG1 ILE K   1      43.385   5.155  65.163  0.00  0.00    +0.000 C 
ATOM      7  CG2 ILE K   1      45.542   4.802  66.288  0.00  0.00    +0.000 C 
ATOM      8  CD1 ILE K   1      42.668   5.598  63.913  0.00  0.00    +0.000 C 
ATOM      9  N   MET K   2      45.470   7.252  68.050  0.00  0.00    +0.000 N 
ATOM     10  CA  MET K   2      45.242   7.425  69.490  0.00  0.00    +0.000 C 
ATOM     11  C   MET K   2      44.921   8.868  69.818  0.00  0.00    +0.000 C 
ATOM     12  O   MET K   2      44.031   9.142  70.604  0.00  0.00    +0.000 OA
ATOM     13  CB  MET K   2      46.453   6.948  70.324  0.00  0.00    +0.000 C 
ATOM     14  CG  MET K   2      46.584   5.418  70.431  0.00  0.00    +0.000 C 
ATOM     15  SD  MET K   2      45.019   4.508  70.350  0.00  0.00    +0.000 S 
ATOM     16  CE  MET K   2      44.332   4.844  71.935  0.00  0.00    +0.000 C 
ATOM     17  H   ILE K   1      46.444   7.662  64.451  0.00  0.00    +0.000 HD
ATOM     18  H   ILE K   1      46.890   7.340  66.023  0.00  0.00    +0.000 HD
ATOM     19  H   ILE K   1      46.160   8.789  65.645  0.00  0.00    +0.000 HD
ATOM     20  H   MET K   2      46.377   7.032  67.737  0.00  0.00    +0.000 HD
TER 
REMARK  Name = /data/user_data/xianyang/t3-aimnet-affinity-balanced/L1/Q07343/pocket.pdb
REMARK                            x       y       z     vdW  Elec       q    Type
REMARK                         _______ _______ _______ _____ _____    ______ ____
ATOM      1  N   GLU L   1      43.447  10.945  67.839  0.00  0.00    +0.000 N 
ATOM      2  CA  GLU L   1      42.093  11.175  67.317  0.00  0.00    +0.000 C 
ATOM      3  C   GLU L   1      41.069  10.492  68.226  0.00  0.00    +0.000 C 
ATOM      4  O   GLU L   1      40.069  11.093  68.609  0.00  0.00    +0.000 OA
ATOM      5  CB  GLU L   1      41.969  10.635  65.873  0.00  0.00    +0.000 C 
ATOM      6  CG  GLU L   1      40.633  10.890  65.181  0.00  0.00    +0.000 C 
ATOM      7  CD  GLU L   1      40.695  10.642  63.673  0.00  0.00    +0.000 C 
ATOM      8  OE1 GLU L   1      41.587  11.191  62.995  0.00  0.00    +0.000 OA
ATOM      9  OE2 GLU L   1      39.837   9.901  63.141  0.00  0.00    +0.000 OA
ATOM     10  N   PHE L   2      41.349   9.235  68.574  0.00  0.00    +0.000 N 
ATOM     11  CA  PHE L   2      40.498   8.434  69.447  0.00  0.00    +0.000 C 
ATOM     12  C   PHE L   2      40.347   9.068  70.834  0.00  0.00    +0.000 C 
ATOM     13  O   PHE L   2      39.259   9.108  71.379  0.00  0.00    +0.000 OA
ATOM     14  CB  PHE L   2      41.064   7.011  69.600  0.00  0.00    +0.000 C 
ATOM     15  CG  PHE L   2      40.710   6.054  68.486  0.00  0.00    +0.000 A 
ATOM     16  CD1 PHE L   2      40.101   6.464  67.306  0.00  0.00    +0.000 A 
ATOM     17  CD2 PHE L   2      41.004   4.714  68.628  0.00  0.00    +0.000 A 
ATOM     18  CE1 PHE L   2      39.804   5.547  66.317  0.00  0.00    +0.000 A 
ATOM     19  CE2 PHE L   2      40.703   3.806  67.634  0.00  0.00    +0.000 A 
ATOM     20  CZ  PHE L   2      40.096   4.205  66.497  0.00  0.00    +0.000 A 
ATOM     21  H   GLU L   1      44.128  11.401  67.231  0.00  0.00    +0.000 HD
ATOM     22  H   GLU L   1      43.635   9.943  67.868  0.00  0.00    +0.000 HD
ATOM     23  H   GLU L   1      43.519  11.331  68.780  0.00  0.00    +0.000 HD
ATOM     24  H   PHE L   2      42.173   8.826  68.223  0.00  0.00    +0.000 HD
TER 
REMARK  Name = /data/user_data/xianyang/t3-aimnet-affinity-balanced/L1/Q07343/pocket.pdb
REMARK                            x       y       z     vdW  Elec       q    Type
REMARK                         _______ _______ _______ _____ _____    ______ ____
ATOM      1  N   MET M   1      38.790   2.114  74.760  0.00  0.00    +0.000 N 
ATOM      2  CA  MET M   1      40.055   2.259  74.037  0.00  0.00    +0.000 C 
ATOM      3  C   MET M   1      40.249   3.715  73.661  0.00  0.00    +0.000 C 
ATOM      4  O   MET M   1      41.346   4.107  73.266  0.00  0.00    +0.000 OA
ATOM      5  CB  MET M   1      40.110   1.350  72.802  0.00  0.00    +0.000 C 
ATOM      6  CG  MET M   1      40.493  -0.101  73.140  0.00  0.00    +0.000 C 
ATOM      7  SD  MET M   1      40.297  -1.391  71.806  0.00  0.00    +0.000 S 
ATOM      8  CE  MET M   1      38.796  -0.816  70.861  0.00  0.00    +0.000 C 
ATOM      9  H   MET M   1      38.655   1.136  75.015  0.00  0.00    +0.000 HD
ATOM     10  H   MET M   1      38.021   2.419  74.164  0.00  0.00    +0.000 HD
ATOM     11  H   MET M   1      38.813   2.686  75.604  0.00  0.00    +0.000 HD
TER 
REMARK  Name = /data/user_data/xianyang/t3-aimnet-affinity-balanced/L1/Q07343/pocket.pdb
REMARK                            x       y       z     vdW  Elec       q    Type
REMARK                         _______ _______ _______ _____ _____    ______ ____
ATOM      1  N   VAL N   1      47.842   2.103  75.302  0.00  0.00    +0.000 N 
ATOM      2  CA  VAL N   1      48.132   2.184  73.868  0.00  0.00    +0.000 C 
ATOM      3  C   VAL N   1      48.708   0.862  73.372  0.00  0.00    +0.000 C 
ATOM      4  O   VAL N   1      48.309   0.360  72.326  0.00  0.00    +0.000 OA
ATOM      5  CB  VAL N   1      49.161   3.313  73.589  0.00  0.00    +0.000 C 
ATOM      6  CG1 VAL N   1      49.640   3.332  72.084  0.00  0.00    +0.000 C 
ATOM      7  CG2 VAL N   1      48.602   4.680  74.023  0.00  0.00    +0.000 C 
ATOM      8  H   VAL N   1      47.166   1.358  75.471  0.00  0.00    +0.000 HD
ATOM      9  H   VAL N   1      47.456   2.991  75.622  0.00  0.00    +0.000 HD
ATOM     10  H   VAL N   1      48.702   1.903  75.812  0.00  0.00    +0.000 HD
TER 
REMARK  Name = /data/user_data/xianyang/t3-aimnet-affinity-balanced/L1/Q07343/pocket.pdb
REMARK                            x       y       z     vdW  Elec       q    Type
REMARK                         _______ _______ _______ _____ _____    ______ ____
ATOM      1  N   SER O   1      46.239  -2.209  73.366  0.00  0.00    +0.000 N 
ATOM      2  CA  SER O   1      45.284  -1.988  72.282  0.00  0.00    +0.000 C 
ATOM      3  C   SER O   1      45.874  -2.346  70.922  0.00  0.00    +0.000 C 
ATOM      4  O   SER O   1      45.192  -2.910  70.086  0.00  0.00    +0.000 OA
ATOM      5  CB  SER O   1      44.814  -0.539  72.297  0.00  0.00    +0.000 C 
ATOM      6  OG  SER O   1      44.450  -0.192  73.615  0.00  0.00    +0.000 OA
ATOM      7  N   GLN O   2      47.146  -2.043  70.711  0.00  0.00    +0.000 N 
ATOM      8  CA  GLN O   2      47.778  -2.374  69.447  0.00  0.00    +0.000 C 
ATOM      9  C   GLN O   2      47.948  -3.886  69.287  0.00  0.00    +0.000 C 
ATOM     10  O   GLN O   2      47.722  -4.429  68.208  0.00  0.00    +0.000 OA
ATOM     11  CB  GLN O   2      49.106  -1.630  69.293  0.00  0.00    +0.000 C 
ATOM     12  CG  GLN O   2      48.939  -0.182  68.844  0.00  0.00    +0.000 C 
ATOM     13  CD  GLN O   2      47.931  -0.046  67.700  0.00  0.00    +0.000 C 
ATOM     14  OE1 GLN O   2      48.075  -0.700  66.669  0.00  0.00    +0.000 OA
ATOM     15  NE2 GLN O   2      46.901   0.762  67.901  0.00  0.00    +0.000 N 
ATOM     16  H   SER O   1      46.551  -3.180  73.352  0.00  0.00    +0.000 HD
ATOM     17  H   SER O   1      45.791  -2.009  74.260  0.00  0.00    +0.000 HD
ATOM     18  H   SER O   1      47.042  -1.592  73.243  0.00  0.00    +0.000 HD
ATOM     19  H   SER O   1      43.737  -0.776  73.918  0.00  0.00    +0.000 HD
ATOM     20  H   GLN O   2      47.665  -1.591  71.415  0.00  0.00    +0.000 HD
ATOM     21  H   GLN O   2      46.225   0.883  67.195  0.00  0.00    +0.000 HD
ATOM     22  H   GLN O   2      46.811   1.242  68.756  0.00  0.00    +0.000 HD
TER 
REMARK  Name = /data/user_data/xianyang/t3-aimnet-affinity-balanced/L1/Q07343/pocket.pdb
REMARK                            x       y       z     vdW  Elec       q    Type
REMARK                         _______ _______ _______ _____ _____    ______ ____
ATOM      1  N   PHE P   1      44.536  -5.281  68.653  0.00  0.00    +0.000 N 
ATOM      2  CA  PHE P   1      44.136  -4.875  67.313  0.00  0.00    +0.000 C 
ATOM      3  C   PHE P   1      44.725  -5.829  66.275  0.00  0.00    +0.000 C 
ATOM      4  O   PHE P   1      44.050  -6.204  65.303  0.00  0.00    +0.000 OA
ATOM      5  CB  PHE P   1      44.622  -3.440  67.069  0.00  0.00    +0.000 C 
ATOM      6  CG  PHE P   1      44.293  -2.885  65.707  0.00  0.00    +0.000 A 
ATOM      7  CD2 PHE P   1      43.011  -2.928  65.208  0.00  0.00    +0.000 A 
ATOM      8  CD1 PHE P   1      45.282  -2.264  64.951  0.00  0.00    +0.000 A 
ATOM      9  CE2 PHE P   1      42.723  -2.379  63.947  0.00  0.00    +0.000 A 
ATOM     10  CE1 PHE P   1      44.998  -1.706  63.689  0.00  0.00    +0.000 A 
ATOM     11  CZ  PHE P   1      43.725  -1.770  63.195  0.00  0.00    +0.000 A 
ATOM     12  H   PHE P   1      44.219  -6.234  68.828  0.00  0.00    +0.000 HD
ATOM     13  H   PHE P   1      44.117  -4.652  69.338  0.00  0.00    +0.000 HD
ATOM     14  H   PHE P   1      45.552  -5.241  68.731  0.00  0.00    +0.000 HD
TER 
