REMARK  Name = /data/user_data/xianyang/t3-aimnet-affinity-balanced/L2/P43166/pocket.pdb
REMARK                            x       y       z     vdW  Elec       q    Type
REMARK                         _______ _______ _______ _____ _____    ______ ____
ATOM      1  N   GLN A   1      -0.982   8.187  22.358  0.00  0.00    +0.000 N 
ATOM      2  CA  GLN A   1      -1.903   7.832  21.286  0.00  0.00    +0.000 C 
ATOM      3  C   GLN A   1      -2.762   8.979  20.757  0.00  0.00    +0.000 C 
ATOM      4  O   GLN A   1      -3.228   9.831  21.518  0.00  0.00    +0.000 OA
ATOM      5  CB  GLN A   1      -2.797   6.685  21.791  0.00  0.00    +0.000 C 
ATOM      6  CG  GLN A   1      -3.953   6.284  20.891  0.00  0.00    +0.000 C 
ATOM      7  CD  GLN A   1      -4.723   5.082  21.438  0.00  0.00    +0.000 C 
ATOM      8  OE1 GLN A   1      -5.949   5.017  21.329  0.00  0.00    +0.000 OA
ATOM      9  NE2 GLN A   1      -4.005   4.126  22.019  0.00  0.00    +0.000 N 
ATOM     10  H   GLN A   1      -0.376   8.947  22.048  0.00  0.00    +0.000 HD
ATOM     11  H   GLN A   1      -0.413   7.376  22.600  0.00  0.00    +0.000 HD
ATOM     12  H   GLN A   1      -1.512   8.487  23.176  0.00  0.00    +0.000 HD
ATOM     13  H   GLN A   1      -3.027   4.217  22.086  0.00  0.00    +0.000 HD
ATOM     14  H   GLN A   1      -4.451   3.327  22.383  0.00  0.00    +0.000 HD
TER 
REMARK  Name = /data/user_data/xianyang/t3-aimnet-affinity-balanced/L2/P43166/pocket.pdb
REMARK                            x       y       z     vdW  Elec       q    Type
REMARK                         _______ _______ _______ _____ _____    ______ ____
ATOM      1  N   LYS B   1      -8.836   3.999  13.709  0.00  0.00    +0.000 N 
ATOM      2  CA  LYS B   1      -9.334   4.342  15.037  0.00  0.00    +0.000 C 
ATOM      3  C   LYS B   1      -8.326   5.194  15.800  0.00  0.00    +0.000 C 
ATOM      4  O   LYS B   1      -8.689   6.172  16.463  0.00  0.00    +0.000 OA
ATOM      5  CB  LYS B   1      -9.604   3.071  15.843  0.00  0.00    +0.000 C 
ATOM      6  CG  LYS B   1     -10.205   3.324  17.215  0.00  0.00    +0.000 C 
ATOM      7  CD  LYS B   1     -10.187   2.069  18.075  0.00  0.00    +0.000 C 
ATOM      8  CE  LYS B   1     -11.384   2.023  19.019  0.00  0.00    +0.000 C 
ATOM      9  NZ  LYS B   1     -11.692   3.345  19.615  0.00  0.00    +0.000 N 
ATOM     10  N   GLN B   2      -7.058   4.803  15.713  0.00  0.00    +0.000 N 
ATOM     11  CA  GLN B   2      -5.993   5.508  16.415  0.00  0.00    +0.000 C 
ATOM     12  C   GLN B   2      -4.621   5.054  15.957  0.00  0.00    +0.000 C 
ATOM     13  O   GLN B   2      -4.483   4.038  15.272  0.00  0.00    +0.000 OA
ATOM     14  CB  GLN B   2      -6.114   5.249  17.925  0.00  0.00    +0.000 C 
ATOM     15  CG  GLN B   2      -6.161   3.761  18.306  0.00  0.00    +0.000 C 
ATOM     16  CD  GLN B   2      -4.805   3.168  18.703  0.00  0.00    +0.000 C 
ATOM     17  OE1 GLN B   2      -3.747   3.734  18.417  0.00  0.00    +0.000 OA
ATOM     18  NE2 GLN B   2      -4.840   2.005  19.357  0.00  0.00    +0.000 N 
ATOM     19  H   LYS B   1      -8.660   4.854  13.181  0.00  0.00    +0.000 HD
ATOM     20  H   LYS B   1      -9.531   3.435  13.220  0.00  0.00    +0.000 HD
ATOM     21  H   LYS B   1      -7.969   3.469  13.797  0.00  0.00    +0.000 HD
ATOM     22  H   LYS B   1     -10.896   3.662  20.168  0.00  0.00    +0.000 HD
ATOM     23  H   LYS B   1     -12.513   3.264  20.215  0.00  0.00    +0.000 HD
ATOM     24  H   LYS B   1     -11.879   4.018  18.872  0.00  0.00    +0.000 HD
ATOM     25  H   GLN B   2      -6.833   4.019  15.162  0.00  0.00    +0.000 HD
ATOM     26  H   GLN B   2      -5.705   1.584  19.567  0.00  0.00    +0.000 HD
ATOM     27  H   GLN B   2      -4.001   1.568  19.629  0.00  0.00    +0.000 HD
TER 
REMARK  Name = /data/user_data/xianyang/t3-aimnet-affinity-balanced/L2/P43166/pocket.pdb
REMARK                            x       y       z     vdW  Elec       q    Type
REMARK                         _______ _______ _______ _____ _____    ______ ____
ATOM      1  N   HIS C   1      -0.375   4.951  17.477  0.00  0.00    +0.000 N 
ATOM      2  CA  HIS C   1       0.493   5.109  18.639  0.00  0.00    +0.000 C 
ATOM      3  C   HIS C   1       1.889   4.620  18.278  0.00  0.00    +0.000 C 
ATOM      4  O   HIS C   1       2.115   4.140  17.164  0.00  0.00    +0.000 OA
ATOM      5  CB  HIS C   1      -0.046   4.294  19.816  0.00  0.00    +0.000 C 
ATOM      6  CG  HIS C   1      -0.235   2.844  19.498  0.00  0.00    +0.000 C 
ATOM      7  ND1 HIS C   1      -1.369   2.360  18.885  0.00  0.00    +0.000 NA
ATOM      8  CD2 HIS C   1       0.592   1.783  19.653  0.00  0.00    +0.000 C 
ATOM      9  CE1 HIS C   1      -1.233   1.063  18.674  0.00  0.00    +0.000 C 
ATOM     10  NE2 HIS C   1      -0.051   0.688  19.130  0.00  0.00    +0.000 NA
ATOM     11  H   HIS C   1      -0.006   5.498  16.700  0.00  0.00    +0.000 HD
ATOM     12  H   HIS C   1      -1.314   5.277  17.707  0.00  0.00    +0.000 HD
ATOM     13  H   HIS C   1      -0.413   3.967  17.212  0.00  0.00    +0.000 HD
TER 
REMARK  Name = /data/user_data/xianyang/t3-aimnet-affinity-balanced/L2/P43166/pocket.pdb
REMARK                            x       y       z     vdW  Elec       q    Type
REMARK                         _______ _______ _______ _____ _____    ______ ____
ATOM      1  N   HIS D   1       5.870   2.734  19.707  0.00  0.00    +0.000 N 
ATOM      2  CA  HIS D   1       6.597   1.849  20.610  0.00  0.00    +0.000 C 
ATOM      3  C   HIS D   1       8.044   2.281  20.407  0.00  0.00    +0.000 C 
ATOM      4  O   HIS D   1       8.466   2.491  19.266  0.00  0.00    +0.000 OA
ATOM      5  CB  HIS D   1       6.412   0.383  20.203  0.00  0.00    +0.000 C 
ATOM      6  CG  HIS D   1       4.995  -0.096  20.291  0.00  0.00    +0.000 A 
ATOM      7  ND1 HIS D   1       4.431  -0.553  21.464  0.00  0.00    +0.000 N 
ATOM      8  CD2 HIS D   1       4.028  -0.188  19.348  0.00  0.00    +0.000 A 
ATOM      9  CE1 HIS D   1       3.179  -0.909  21.238  0.00  0.00    +0.000 A 
ATOM     10  NE2 HIS D   1       2.910  -0.698  19.962  0.00  0.00    +0.000 NA
ATOM     11  H   HIS D   1       4.872   2.530  19.761  0.00  0.00    +0.000 HD
ATOM     12  H   HIS D   1       6.196   2.587  18.752  0.00  0.00    +0.000 HD
ATOM     13  H   HIS D   1       6.034   3.704  19.977  0.00  0.00    +0.000 HD
ATOM     14  H   HIS D   1       4.890  -0.606  22.334  0.00  0.00    +0.000 HD
TER 
REMARK  Name = /data/user_data/xianyang/t3-aimnet-affinity-balanced/L2/P43166/pocket.pdb
REMARK                            x       y       z     vdW  Elec       q    Type
REMARK                         _______ _______ _______ _____ _____    ______ ____
ATOM      1  N   GLU E   1       8.836  -3.200  17.489  0.00  0.00    +0.000 N 
ATOM      2  CA  GLU E   1       8.297  -4.484  17.908  0.00  0.00    +0.000 C 
ATOM      3  C   GLU E   1       8.678  -5.501  16.851  0.00  0.00    +0.000 C 
ATOM      4  O   GLU E   1       9.273  -6.538  17.154  0.00  0.00    +0.000 OA
ATOM      5  CB  GLU E   1       6.783  -4.379  18.071  0.00  0.00    +0.000 C 
ATOM      6  CG  GLU E   1       6.392  -3.308  19.082  0.00  0.00    +0.000 C 
ATOM      7  CD  GLU E   1       5.119  -3.636  19.826  0.00  0.00    +0.000 C 
ATOM      8  OE1 GLU E   1       4.044  -3.651  19.189  0.00  0.00    +0.000 OA
ATOM      9  OE2 GLU E   1       5.198  -3.879  21.051  0.00  0.00    +0.000 OA
ATOM     10  H   GLU E   1       9.848  -3.275  17.381  0.00  0.00    +0.000 HD
ATOM     11  H   GLU E   1       8.620  -2.495  18.193  0.00  0.00    +0.000 HD
ATOM     12  H   GLU E   1       8.418  -2.930  16.598  0.00  0.00    +0.000 HD
TER 
REMARK  Name = /data/user_data/xianyang/t3-aimnet-affinity-balanced/L2/P43166/pocket.pdb
REMARK                            x       y       z     vdW  Elec       q    Type
REMARK                         _______ _______ _______ _____ _____    ______ ____
ATOM      1  N   HIS F   1       2.219   2.515  14.822  0.00  0.00    +0.000 N 
ATOM      2  CA  HIS F   1       1.110   1.614  14.541  0.00  0.00    +0.000 C 
ATOM      3  C   HIS F   1      -0.181   2.392  14.282  0.00  0.00    +0.000 C 
ATOM      4  O   HIS F   1      -0.635   3.155  15.136  0.00  0.00    +0.000 OA
ATOM      5  CB  HIS F   1       0.883   0.662  15.717  0.00  0.00    +0.000 C 
ATOM      6  CG  HIS F   1       1.945  -0.382  15.867  0.00  0.00    +0.000 A 
ATOM      7  ND1 HIS F   1       2.073  -1.152  17.002  0.00  0.00    +0.000 N 
ATOM      8  CD2 HIS F   1       2.908  -0.804  15.013  0.00  0.00    +0.000 A 
ATOM      9  CE1 HIS F   1       3.070  -2.004  16.841  0.00  0.00    +0.000 A 
ATOM     10  NE2 HIS F   1       3.593  -1.813  15.643  0.00  0.00    +0.000 NA
ATOM     11  H   HIS F   1       2.357   3.142  14.029  0.00  0.00    +0.000 HD
ATOM     12  H   HIS F   1       3.068   1.971  14.977  0.00  0.00    +0.000 HD
ATOM     13  H   HIS F   1       2.009   3.063  15.656  0.00  0.00    +0.000 HD
ATOM     14  H   HIS F   1       1.510  -1.079  17.806  0.00  0.00    +0.000 HD
TER 
REMARK  Name = /data/user_data/xianyang/t3-aimnet-affinity-balanced/L2/P43166/pocket.pdb
REMARK                            x       y       z     vdW  Elec       q    Type
REMARK                         _______ _______ _______ _____ _____    ______ ____
ATOM      1  N   VAL G   1      -3.903   1.745  13.780  0.00  0.00    +0.000 N 
ATOM      2  CA  VAL G   1      -4.901   0.706  14.052  0.00  0.00    +0.000 C 
ATOM      3  C   VAL G   1      -6.264   0.940  13.396  0.00  0.00    +0.000 C 
ATOM      4  O   VAL G   1      -6.940   1.919  13.708  0.00  0.00    +0.000 OA
ATOM      5  CB  VAL G   1      -5.120   0.576  15.584  0.00  0.00    +0.000 C 
ATOM      6  CG1 VAL G   1      -6.106  -0.533  15.886  0.00  0.00    +0.000 C 
ATOM      7  CG2 VAL G   1      -3.788   0.316  16.283  0.00  0.00    +0.000 C 
ATOM      8  H   VAL G   1      -3.763   1.826  12.773  0.00  0.00    +0.000 HD
ATOM      9  H   VAL G   1      -3.021   1.495  14.227  0.00  0.00    +0.000 HD
ATOM     10  H   VAL G   1      -4.231   2.637  14.151  0.00  0.00    +0.000 HD
TER 
REMARK  Name = /data/user_data/xianyang/t3-aimnet-affinity-balanced/L2/P43166/pocket.pdb
REMARK                            x       y       z     vdW  Elec       q    Type
REMARK                         _______ _______ _______ _____ _____    ______ ____
ATOM      1  N   PHE H   1     -15.502  -1.696  17.534  0.00  0.00    +0.000 N 
ATOM      2  CA  PHE H   1     -14.112  -2.120  17.473  0.00  0.00    +0.000 C 
ATOM      3  C   PHE H   1     -13.936  -3.349  18.359  0.00  0.00    +0.000 C 
ATOM      4  O   PHE H   1     -13.184  -4.259  18.023  0.00  0.00    +0.000 OA
ATOM      5  CB  PHE H   1     -13.185  -0.986  17.932  0.00  0.00    +0.000 C 
ATOM      6  CG  PHE H   1     -11.746  -1.397  18.069  0.00  0.00    +0.000 A 
ATOM      7  CD2 PHE H   1     -11.296  -2.025  19.228  0.00  0.00    +0.000 A 
ATOM      8  CD1 PHE H   1     -10.844  -1.179  17.032  0.00  0.00    +0.000 A 
ATOM      9  CE2 PHE H   1      -9.967  -2.433  19.351  0.00  0.00    +0.000 A 
ATOM     10  CE1 PHE H   1      -9.513  -1.583  17.145  0.00  0.00    +0.000 A 
ATOM     11  CZ  PHE H   1      -9.075  -2.210  18.305  0.00  0.00    +0.000 A 
ATOM     12  H   PHE H   1     -15.633  -0.874  16.945  0.00  0.00    +0.000 HD
ATOM     13  H   PHE H   1     -15.745  -1.466  18.497  0.00  0.00    +0.000 HD
ATOM     14  H   PHE H   1     -16.103  -2.451  17.202  0.00  0.00    +0.000 HD
TER 
REMARK  Name = /data/user_data/xianyang/t3-aimnet-affinity-balanced/L2/P43166/pocket.pdb
REMARK                            x       y       z     vdW  Elec       q    Type
REMARK                         _______ _______ _______ _____ _____    ______ ____
ATOM      1  N   VAL I   1      -3.630  -3.509  11.104  0.00  0.00    +0.000 N 
ATOM      2  CA  VAL I   1      -2.703  -2.541  11.672  0.00  0.00    +0.000 C 
ATOM      3  C   VAL I   1      -1.544  -2.289  10.719  0.00  0.00    +0.000 C 
ATOM      4  O   VAL I   1      -0.869  -3.213  10.256  0.00  0.00    +0.000 OA
ATOM      5  CB  VAL I   1      -2.141  -3.000  13.043  0.00  0.00    +0.000 C 
ATOM      6  CG1 VAL I   1      -1.233  -1.914  13.617  0.00  0.00    +0.000 C 
ATOM      7  CG2 VAL I   1      -3.292  -3.285  14.017  0.00  0.00    +0.000 C 
ATOM      8  H   VAL I   1      -3.972  -3.166  10.207  0.00  0.00    +0.000 HD
ATOM      9  H   VAL I   1      -4.416  -3.640  11.740  0.00  0.00    +0.000 HD
ATOM     10  H   VAL I   1      -3.151  -4.399  10.967  0.00  0.00    +0.000 HD
TER 
REMARK  Name = /data/user_data/xianyang/t3-aimnet-affinity-balanced/L2/P43166/pocket.pdb
REMARK                            x       y       z     vdW  Elec       q    Type
REMARK                         _______ _______ _______ _____ _____    ______ ____
ATOM      1  N   SER J   1      -1.614 -10.709  15.669  0.00  0.00    +0.000 N 
ATOM      2  CA  SER J   1      -2.443 -10.263  16.778  0.00  0.00    +0.000 C 
ATOM      3  C   SER J   1      -2.079  -8.874  17.285  0.00  0.00    +0.000 C 
ATOM      4  O   SER J   1      -1.181  -8.218  16.760  0.00  0.00    +0.000 OA
ATOM      5  CB  SER J   1      -2.291 -11.237  17.945  0.00  0.00    +0.000 C 
ATOM      6  OG  SER J   1      -0.997 -11.102  18.518  0.00  0.00    +0.000 OA
ATOM      7  N   LEU J   2      -2.800  -8.430  18.312  0.00  0.00    +0.000 N 
ATOM      8  CA  LEU J   2      -2.507  -7.148  18.940  0.00  0.00    +0.000 C 
ATOM      9  C   LEU J   2      -1.208  -7.432  19.699  0.00  0.00    +0.000 C 
ATOM     10  O   LEU J   2      -0.964  -8.580  20.081  0.00  0.00    +0.000 OA
ATOM     11  CB  LEU J   2      -3.623  -6.765  19.919  0.00  0.00    +0.000 C 
ATOM     12  CG  LEU J   2      -4.999  -6.471  19.302  0.00  0.00    +0.000 C 
ATOM     13  CD2 LEU J   2      -6.026  -6.194  20.396  0.00  0.00    +0.000 C 
ATOM     14  CD1 LEU J   2      -4.886  -5.281  18.371  0.00  0.00    +0.000 C 
ATOM     15  N   THR J   3      -0.368  -6.421  19.915  0.00  0.00    +0.000 N 
ATOM     16  CA  THR J   3       0.889  -6.662  20.623  0.00  0.00    +0.000 C 
ATOM     17  C   THR J   3       0.846  -6.312  22.109  0.00  0.00    +0.000 C 
ATOM     18  O   THR J   3       1.860  -6.398  22.808  0.00  0.00    +0.000 OA
ATOM     19  CB  THR J   3       2.057  -5.909  19.973  0.00  0.00    +0.000 C 
ATOM     20  OG1 THR J   3       1.866  -4.500  20.134  0.00  0.00    +0.000 OA
ATOM     21  CG2 THR J   3       2.148  -6.261  18.486  0.00  0.00    +0.000 C 
ATOM     22  N   THR J   4      -0.327  -5.897  22.574  0.00  0.00    +0.000 N 
ATOM     23  CA  THR J   4      -0.545  -5.575  23.977  0.00  0.00    +0.000 C 
ATOM     24  C   THR J   4      -1.851  -6.268  24.341  0.00  0.00    +0.000 C 
ATOM     25  O   THR J   4      -2.691  -6.512  23.475  0.00  0.00    +0.000 OA
ATOM     26  CB  THR J   4      -0.737  -4.057  24.229  0.00  0.00    +0.000 C 
ATOM     27  OG1 THR J   4      -1.900  -3.598  23.529  0.00  0.00    +0.000 OA
ATOM     28  CG2 THR J   4       0.483  -3.270  23.772  0.00  0.00    +0.000 C 
ATOM     29  N   PRO J   5      -2.029  -6.626  25.620  0.00  0.00    +0.000 N 
ATOM     30  CA  PRO J   5      -3.275  -7.286  26.019  0.00  0.00    +0.000 C 
ATOM     31  C   PRO J   5      -4.445  -6.485  25.452  0.00  0.00    +0.000 C 
ATOM     32  O   PRO J   5      -4.383  -5.256  25.392  0.00  0.00    +0.000 OA
ATOM     33  CB  PRO J   5      -3.208  -7.232  27.536  0.00  0.00    +0.000 C 
ATOM     34  CG  PRO J   5      -1.744  -7.420  27.792  0.00  0.00    +0.000 C 
ATOM     35  CD  PRO J   5      -1.097  -6.522  26.756  0.00  0.00    +0.000 C 
ATOM     36  N   PRO J   6      -5.549  -7.156  25.083  0.00  0.00    +0.000 N 
ATOM     37  CA  PRO J   6      -5.840  -8.593  25.130  0.00  0.00    +0.000 C 
ATOM     38  C   PRO J   6      -5.101  -9.532  24.168  0.00  0.00    +0.000 C 
ATOM     39  O   PRO J   6      -5.340 -10.739  24.186  0.00  0.00    +0.000 OA
ATOM     40  CB  PRO J   6      -7.353  -8.629  24.932  0.00  0.00    +0.000 C 
ATOM     41  CG  PRO J   6      -7.569  -7.527  23.970  0.00  0.00    +0.000 C 
ATOM     42  CD  PRO J   6      -6.697  -6.416  24.527  0.00  0.00    +0.000 C 
ATOM     43  N   LEU J   7      -4.223  -8.991  23.328  0.00  0.00    +0.000 N 
ATOM     44  CA  LEU J   7      -3.446  -9.818  22.399  0.00  0.00    +0.000 C 
ATOM     45  C   LEU J   7      -4.309 -10.648  21.443  0.00  0.00    +0.000 C 
ATOM     46  O   LEU J   7      -3.899 -11.722  21.003  0.00  0.00    +0.000 OA
ATOM     47  CB  LEU J   7      -2.524 -10.755  23.193  0.00  0.00    +0.000 C 
ATOM     48  CG  LEU J   7      -1.575 -10.100  24.205  0.00  0.00    +0.000 C 
ATOM     49  CD2 LEU J   7      -0.957 -11.166  25.102  0.00  0.00    +0.000 C 
ATOM     50  CD1 LEU J   7      -0.487  -9.323  23.469  0.00  0.00    +0.000 C 
ATOM     51  H   SER J   1      -1.713 -10.061  14.888  0.00  0.00    +0.000 HD
ATOM     52  H   SER J   1      -1.909 -11.641  15.377  0.00  0.00    +0.000 HD
ATOM     53  H   SER J   1      -0.638 -10.739  15.964  0.00  0.00    +0.000 HD
ATOM     54  H   SER J   1      -0.324 -11.299  17.848  0.00  0.00    +0.000 HD
ATOM     55  H   LEU J   2      -3.544  -8.977  18.653  0.00  0.00    +0.000 HD
ATOM     56  H   THR J   3      -0.592  -5.516  19.600  0.00  0.00    +0.000 HD
ATOM     57  H   THR J   3       1.038  -4.235  19.704  0.00  0.00    +0.000 HD
ATOM     58  H   THR J   4      -1.079  -5.803  21.945  0.00  0.00    +0.000 HD
ATOM     59  H   THR J   4      -1.782  -3.742  22.577  0.00  0.00    +0.000 HD
ATOM     60  H   LEU J   7      -4.092  -8.015  23.330  0.00  0.00    +0.000 HD
TER 
REMARK  Name = /data/user_data/xianyang/t3-aimnet-affinity-balanced/L2/P43166/pocket.pdb
REMARK                            x       y       z     vdW  Elec       q    Type
REMARK                         _______ _______ _______ _____ _____    ______ ____
ATOM      1  N   VAL K   1      -5.713  -9.529  13.909  0.00  0.00    +0.000 N 
ATOM      2  CA  VAL K   1      -4.996  -8.518  13.146  0.00  0.00    +0.000 C 
ATOM      3  C   VAL K   1      -4.306  -8.950  11.867  0.00  0.00    +0.000 C 
ATOM      4  O   VAL K   1      -3.502  -9.888  11.860  0.00  0.00    +0.000 OA
ATOM      5  CB  VAL K   1      -3.917  -7.833  14.023  0.00  0.00    +0.000 C 
ATOM      6  CG1 VAL K   1      -3.138  -6.814  13.192  0.00  0.00    +0.000 C 
ATOM      7  CG2 VAL K   1      -4.565  -7.168  15.241  0.00  0.00    +0.000 C 
ATOM      8  H   VAL K   1      -6.417  -9.967  13.315  0.00  0.00    +0.000 HD
ATOM      9  H   VAL K   1      -6.168  -9.091  14.710  0.00  0.00    +0.000 HD
ATOM     10  H   VAL K   1      -5.056 -10.237  14.237  0.00  0.00    +0.000 HD
TER 
REMARK  Name = /data/user_data/xianyang/t3-aimnet-affinity-balanced/L2/P43166/pocket.pdb
REMARK                            x       y       z     vdW  Elec       q    Type
REMARK                         _______ _______ _______ _____ _____    ______ ____
ATOM      1  N   TRP L   1      -1.642  -7.855   9.745  0.00  0.00    +0.000 N 
ATOM      2  CA  TRP L   1      -0.532  -6.924   9.784  0.00  0.00    +0.000 C 
ATOM      3  C   TRP L   1      -0.036  -6.504   8.405  0.00  0.00    +0.000 C 
ATOM      4  O   TRP L   1       0.070  -7.316   7.486  0.00  0.00    +0.000 OA
ATOM      5  CB  TRP L   1       0.633  -7.515  10.586  0.00  0.00    +0.000 C 
ATOM      6  CG  TRP L   1       0.483  -7.322  12.065  0.00  0.00    +0.000 C 
ATOM      7  CD1 TRP L   1      -0.028  -8.210  12.964  0.00  0.00    +0.000 C 
ATOM      8  CD2 TRP L   1       0.770  -6.125  12.799  0.00  0.00    +0.000 A 
ATOM      9  NE1 TRP L   1      -0.084  -7.638  14.217  0.00  0.00    +0.000 NA
ATOM     10  CE2 TRP L   1       0.398  -6.356  14.140  0.00  0.00    +0.000 A 
ATOM     11  CE3 TRP L   1       1.301  -4.875  12.448  0.00  0.00    +0.000 A 
ATOM     12  CZ2 TRP L   1       0.542  -5.382  15.136  0.00  0.00    +0.000 A 
ATOM     13  CZ3 TRP L   1       1.443  -3.910  13.435  0.00  0.00    +0.000 A 
ATOM     14  CH2 TRP L   1       1.061  -4.169  14.766  0.00  0.00    +0.000 A 
ATOM     15  H   TRP L   1      -2.408  -7.448   9.209  0.00  0.00    +0.000 HD
ATOM     16  H   TRP L   1      -1.957  -8.048  10.696  0.00  0.00    +0.000 HD
ATOM     17  H   TRP L   1      -1.342  -8.724   9.303  0.00  0.00    +0.000 HD
TER 
