REMARK  Name = /home/xianyang/aimnet2_score_pipelines/work/L1234-fixed-receptor-eint-20260921/L1/P06239/prepared.pdb
REMARK                            x       y       z     vdW  Elec       q    Type
REMARK                         _______ _______ _______ _____ _____    ______ ____
ATOM      1  CH3 ACE A   1      32.487  31.279  88.985  0.00  0.00    +0.000 C 
ATOM      2  C   ACE A   1      31.556  32.484  89.066  0.00  0.00    +0.000 C 
ATOM      3  O   ACE A   1      30.524  32.519  88.422  0.00  0.00    +0.000 OA
ATOM      4  N   ARG A   2      31.958  33.498  89.826  0.00  0.00    +0.000 N 
ATOM      5  H   ARG A   2      32.844  33.435  90.300  0.00  0.00    +0.000 HD
ATOM      6  CA  ARG A   2      31.149  34.697  89.970  0.00  0.00    +0.000 C 
ATOM      7  C   ARG A   2      31.216  35.590  88.737  0.00  0.00    +0.000 C 
ATOM      8  O   ARG A   2      32.285  35.858  88.232  0.00  0.00    +0.000 OA
ATOM      9  CB  ARG A   2      31.586  35.481  91.206  0.00  0.00    +0.000 C 
ATOM     10  CG  ARG A   2      30.578  36.542  91.602  0.00  0.00    +0.000 C 
ATOM     11  CD  ARG A   2      30.650  36.833  93.108  0.00  0.00    +0.000 C 
ATOM     12  NE  ARG A   2      32.020  37.004  93.581  0.00  0.00    +0.000 N 
ATOM     13  HE  ARG A   2      32.651  37.520  92.997  0.00  0.00    +0.000 HD
ATOM     14  CZ  ARG A   2      32.474  36.540  94.752  0.00  0.00    +0.000 C 
ATOM     15  NH1 ARG A   2      31.658  35.886  95.591  0.00  0.00    +0.000 N 
ATOM     16 HH11 ARG A   2      30.651  36.069  95.495  0.00  0.00    +0.000 HD
ATOM     17 HH12 ARG A   2      31.979  35.508  96.462  0.00  0.00    +0.000 HD
ATOM     18  NH2 ARG A   2      33.760  36.673  95.064  0.00  0.00    +0.000 N 
ATOM     19 HH21 ARG A   2      34.096  36.258  95.909  0.00  0.00    +0.000 HD
ATOM     20 HH22 ARG A   2      34.379  37.159  94.447  0.00  0.00    +0.000 HD
ATOM     21  N   LEU A   3      30.062  35.972  88.205  0.00  0.00    +0.000 N 
ATOM     22  H   LEU A   3      29.203  35.677  88.640  0.00  0.00    +0.000 HD
ATOM     23  CA  LEU A   3      30.012  36.833  87.024  0.00  0.00    +0.000 C 
ATOM     24  C   LEU A   3      29.757  38.290  87.354  0.00  0.00    +0.000 C 
ATOM     25  O   LEU A   3      30.110  39.141  86.586  0.00  0.00    +0.000 OA
ATOM     26  CB  LEU A   3      28.920  36.356  86.071  0.00  0.00    +0.000 C 
ATOM     27  CG  LEU A   3      29.000  34.881  85.622  0.00  0.00    +0.000 C 
ATOM     28  CD1 LEU A   3      27.692  34.513  84.926  0.00  0.00    +0.000 C 
ATOM     29  CD2 LEU A   3      30.194  34.549  84.674  0.00  0.00    +0.000 C 
ATOM     30  N   GLY A   4      29.043  38.534  88.454  0.00  0.00    +0.000 N 
ATOM     31  H   GLY A   4      28.708  37.754  89.010  0.00  0.00    +0.000 HD
ATOM     32  CA  GLY A   4      28.697  39.889  88.879  0.00  0.00    +0.000 C 
ATOM     33  C   GLY A   4      28.247  39.871  90.337  0.00  0.00    +0.000 C 
ATOM     34  O   GLY A   4      27.860  38.831  90.871  0.00  0.00    +0.000 OA
ATOM     35  N   ALA A   5      28.377  40.997  91.032  0.00  0.00    +0.000 N 
ATOM     36  H   ALA A   5      28.680  41.854  90.592  0.00  0.00    +0.000 HD
ATOM     37  CA  ALA A   5      27.977  41.046  92.430  0.00  0.00    +0.000 C 
ATOM     38  C   ALA A   5      27.333  42.364  92.753  0.00  0.00    +0.000 C 
ATOM     39  O   ALA A   5      27.654  43.386  92.154  0.00  0.00    +0.000 OA
ATOM     40  CB  ALA A   5      29.170  40.793  93.359  0.00  0.00    +0.000 C 
ATOM     41  N   GLY A   6      26.457  42.365  93.744  0.00  0.00    +0.000 N 
ATOM     42  H   GLY A   6      26.176  41.510  94.217  0.00  0.00    +0.000 HD
ATOM     43  CA  GLY A   6      25.782  43.592  94.068  0.00  0.00    +0.000 C 
ATOM     44  C   GLY A   6      25.166  43.611  95.431  0.00  0.00    +0.000 C 
ATOM     45  O   GLY A   6      25.350  42.700  96.222  0.00  0.00    +0.000 OA
ATOM     46  N   NME A   7      24.527  44.737  95.722  0.00  0.00    +0.000 N 
ATOM     47  H   NME A   7      24.471  45.456  95.017  0.00  0.00    +0.000 HD
ATOM     48  C   NME A   7      23.874  44.957  96.998  0.00  0.00    +0.000 C 
TER 
REMARK  Name = /home/xianyang/aimnet2_score_pipelines/work/L1234-fixed-receptor-eint-20260921/L1/P06239/prepared.pdb
REMARK                            x       y       z     vdW  Elec       q    Type
REMARK                         _______ _______ _______ _____ _____    ______ ____
ATOM      1  CH3 ACE B   1      22.937  39.558  95.310  0.00  0.00    +0.000 C 
ATOM      2  C   ACE B   1      24.099  39.430  94.354  0.00  0.00    +0.000 C 
ATOM      3  O   ACE B   1      24.812  40.409  94.037  0.00  0.00    +0.000 OA
ATOM      4  N   GLU B   2      24.241  38.212  93.832  0.00  0.00    +0.000 N 
ATOM      5  H   GLU B   2      23.565  37.491  94.072  0.00  0.00    +0.000 HD
ATOM      6  CA  GLU B   2      25.292  37.891  92.911  0.00  0.00    +0.000 C 
ATOM      7  C   GLU B   2      24.742  37.130  91.709  0.00  0.00    +0.000 C 
ATOM      8  O   GLU B   2      23.557  36.707  91.717  0.00  0.00    +0.000 OA
ATOM      9  CB  GLU B   2      26.321  37.003  93.639  0.00  0.00    +0.000 C 
ATOM     10  CG  GLU B   2      26.843  37.599  94.953  0.00  0.00    +0.000 C 
ATOM     11  CD  GLU B   2      28.028  36.822  95.491  0.00  0.00    +0.000 C 
ATOM     12  OE1 GLU B   2      27.927  35.579  95.638  0.00  0.00    +0.000 OA
ATOM     13  OE2 GLU B   2      29.072  37.457  95.699  0.00  0.00    +0.000 OA
ATOM     14  N   VAL B   3      25.577  36.995  90.694  0.00  0.00    +0.000 N 
ATOM     15  H   VAL B   3      26.504  37.407  90.773  0.00  0.00    +0.000 HD
ATOM     16  CA  VAL B   3      25.275  36.217  89.519  0.00  0.00    +0.000 C 
ATOM     17  C   VAL B   3      26.500  35.388  89.299  0.00  0.00    +0.000 C 
ATOM     18  O   VAL B   3      27.644  35.919  89.313  0.00  0.00    +0.000 OA
ATOM     19  CB  VAL B   3      24.980  37.045  88.216  0.00  0.00    +0.000 C 
ATOM     20  CG1 VAL B   3      24.607  36.055  87.038  0.00  0.00    +0.000 C 
ATOM     21  CG2 VAL B   3      23.823  38.034  88.430  0.00  0.00    +0.000 C 
ATOM     22  N   TRP B   4      26.279  34.089  89.199  0.00  0.00    +0.000 N 
ATOM     23  H   TRP B   4      25.319  33.763  89.279  0.00  0.00    +0.000 HD
ATOM     24  CA  TRP B   4      27.307  33.090  89.022  0.00  0.00    +0.000 C 
ATOM     25  C   TRP B   4      27.080  32.231  87.800  0.00  0.00    +0.000 C 
ATOM     26  O   TRP B   4      25.944  31.967  87.419  0.00  0.00    +0.000 OA
ATOM     27  CB  TRP B   4      27.269  32.103  90.194  0.00  0.00    +0.000 C 
ATOM     28  CG  TRP B   4      27.761  32.642  91.486  0.00  0.00    +0.000 A 
ATOM     29  CD1 TRP B   4      27.135  33.529  92.281  0.00  0.00    +0.000 A 
ATOM     30  CD2 TRP B   4      29.008  32.329  92.089  0.00  0.00    +0.000 A 
ATOM     31  NE1 TRP B   4      27.947  33.832  93.362  0.00  0.00    +0.000 N 
ATOM     32  HE1 TRP B   4      27.715  34.455  94.146  0.00  0.00    +0.000 HD
ATOM     33  CE2 TRP B   4      29.119  33.128  93.248  0.00  0.00    +0.000 A 
ATOM     34  CE3 TRP B   4      30.071  31.488  91.758  0.00  0.00    +0.000 A 
ATOM     35  CZ2 TRP B   4      30.238  33.081  94.093  0.00  0.00    +0.000 A 
ATOM     36  CZ3 TRP B   4      31.199  31.429  92.613  0.00  0.00    +0.000 A 
ATOM     37  CH2 TRP B   4      31.273  32.246  93.745  0.00  0.00    +0.000 A 
ATOM     38  N   NME B   5      28.163  31.821  87.161  0.00  0.00    +0.000 N 
ATOM     39  H   NME B   5      29.080  32.076  87.507  0.00  0.00    +0.000 HD
ATOM     40  C   NME B   5      28.038  30.878  86.085  0.00  0.00    +0.000 C 
TER 
REMARK  Name = /home/xianyang/aimnet2_score_pipelines/work/L1234-fixed-receptor-eint-20260921/L1/P06239/prepared.pdb
REMARK                            x       y       z     vdW  Elec       q    Type
REMARK                         _______ _______ _______ _____ _____    ______ ____
ATOM      1  CH3 ACE C   1      25.997  25.980  81.437  0.00  0.00    +0.000 C 
ATOM      2  C   ACE C   1      24.835  26.970  81.591  0.00  0.00    +0.000 C 
ATOM      3  O   ACE C   1      24.107  27.215  80.617  0.00  0.00    +0.000 OA
ATOM      4  N   VAL C   2      24.729  27.609  82.759  0.00  0.00    +0.000 N 
ATOM      5  H   VAL C   2      25.434  27.458  83.465  0.00  0.00    +0.000 HD
ATOM      6  CA  VAL C   2      23.665  28.550  83.073  0.00  0.00    +0.000 C 
ATOM      7  C   VAL C   2      24.196  29.670  83.985  0.00  0.00    +0.000 C 
ATOM      8  O   VAL C   2      25.323  29.602  84.495  0.00  0.00    +0.000 OA
ATOM      9  CB  VAL C   2      22.487  27.835  83.862  0.00  0.00    +0.000 C 
ATOM     10  CG1 VAL C   2      21.848  26.691  83.028  0.00  0.00    +0.000 C 
ATOM     11  CG2 VAL C   2      23.005  27.227  85.215  0.00  0.00    +0.000 C 
ATOM     12  N   ALA C   3      23.427  30.735  84.117  0.00  0.00    +0.000 N 
ATOM     13  H   ALA C   3      22.513  30.749  83.669  0.00  0.00    +0.000 HD
ATOM     14  CA  ALA C   3      23.749  31.844  85.016  0.00  0.00    +0.000 C 
ATOM     15  C   ALA C   3      22.807  31.730  86.169  0.00  0.00    +0.000 C 
ATOM     16  O   ALA C   3      21.619  31.496  85.963  0.00  0.00    +0.000 OA
ATOM     17  CB  ALA C   3      23.510  33.201  84.315  0.00  0.00    +0.000 C 
ATOM     18  N   VAL C   4      23.311  31.871  87.376  0.00  0.00    +0.000 N 
ATOM     19  H   VAL C   4      24.301  32.042  87.473  0.00  0.00    +0.000 HD
ATOM     20  CA  VAL C   4      22.501  31.778  88.577  0.00  0.00    +0.000 C 
ATOM     21  C   VAL C   4      22.551  33.066  89.373  0.00  0.00    +0.000 C 
ATOM     22  O   VAL C   4      23.604  33.496  89.799  0.00  0.00    +0.000 OA
ATOM     23  CB  VAL C   4      22.991  30.643  89.516  0.00  0.00    +0.000 C 
ATOM     24  CG1 VAL C   4      22.089  30.562  90.776  0.00  0.00    +0.000 C 
ATOM     25  CG2 VAL C   4      22.962  29.341  88.754  0.00  0.00    +0.000 C 
ATOM     26  N   LYS C   5      21.397  33.713  89.473  0.00  0.00    +0.000 N 
ATOM     27  H   LYS C   5      20.562  33.299  89.060  0.00  0.00    +0.000 HD
ATOM     28  CA  LYS C   5      21.250  34.941  90.240  0.00  0.00    +0.000 C 
ATOM     29  C   LYS C   5      20.778  34.571  91.660  0.00  0.00    +0.000 C 
ATOM     30  O   LYS C   5      19.717  33.951  91.823  0.00  0.00    +0.000 OA
ATOM     31  CB  LYS C   5      20.196  35.824  89.540  0.00  0.00    +0.000 C 
ATOM     32  CG  LYS C   5      20.151  37.282  90.025  0.00  0.00    +0.000 C 
ATOM     33  CD  LYS C   5      19.145  38.096  89.197  0.00  0.00    +0.000 C 
ATOM     34  CE  LYS C   5      19.180  39.574  89.551  0.00  0.00    +0.000 C 
ATOM     35  NZ  LYS C   5      18.104  40.361  88.885  0.00  0.00    +0.000 N 
ATOM     36  HZ1 LYS C   5      17.200  39.854  88.831  0.00  0.00    +0.000 HD
ATOM     37  HZ2 LYS C   5      17.973  41.270  89.315  0.00  0.00    +0.000 HD
ATOM     38  HZ3 LYS C   5      18.320  40.517  87.914  0.00  0.00    +0.000 HD
ATOM     39  N   SER C   6      21.572  34.907  92.662  0.00  0.00    +0.000 N 
ATOM     40  H   SER C   6      22.398  35.468  92.476  0.00  0.00    +0.000 HD
ATOM     41  CA  SER C   6      21.239  34.619  94.053  0.00  0.00    +0.000 C 
ATOM     42  C   SER C   6      20.792  35.880  94.777  0.00  0.00    +0.000 C 
ATOM     43  O   SER C   6      21.347  36.931  94.557  0.00  0.00    +0.000 OA
ATOM     44  CB  SER C   6      22.491  34.100  94.762  0.00  0.00    +0.000 C 
ATOM     45  OG  SER C   6      23.481  35.139  94.783  0.00  0.00    +0.000 OA
ATOM     46  HG  SER C   6      24.291  34.815  95.188  0.00  0.00    +0.000 HD
ATOM     47  N   NME C   7      19.812  35.772  95.658  0.00  0.00    +0.000 N 
ATOM     48  H   NME C   7      19.364  34.880  95.799  0.00  0.00    +0.000 HD
ATOM     49  C   NME C   7      19.364  36.926  96.416  0.00  0.00    +0.000 C 
TER 
REMARK  Name = /home/xianyang/aimnet2_score_pipelines/work/L1234-fixed-receptor-eint-20260921/L1/P06239/prepared.pdb
REMARK                            x       y       z     vdW  Elec       q    Type
REMARK                         _______ _______ _______ _____ _____    ______ ____
ATOM      1  CH3 ACE D   1      10.950  36.406  92.251  0.00  0.00    +0.000 C 
ATOM      2  C   ACE D   1      10.013  36.957  91.164  0.00  0.00    +0.000 C 
ATOM      3  O   ACE D   1       9.770  36.292  90.126  0.00  0.00    +0.000 OA
ATOM      4  N   ALA D   2       9.545  38.181  91.372  0.00  0.00    +0.000 N 
ATOM      5  H   ALA D   2       9.764  38.663  92.228  0.00  0.00    +0.000 HD
ATOM      6  CA  ALA D   2       8.674  38.823  90.398  0.00  0.00    +0.000 C 
ATOM      7  C   ALA D   2       9.309  38.885  89.011  0.00  0.00    +0.000 C 
ATOM      8  O   ALA D   2       8.624  38.732  88.000  0.00  0.00    +0.000 OA
ATOM      9  CB  ALA D   2       8.299  40.253  90.886  0.00  0.00    +0.000 C 
ATOM     10  N   GLU D   3      10.616  39.149  88.967  0.00  0.00    +0.000 N 
ATOM     11  H   GLU D   3      11.115  39.325  89.822  0.00  0.00    +0.000 HD
ATOM     12  CA  GLU D   3      11.337  39.210  87.702  0.00  0.00    +0.000 C 
ATOM     13  C   GLU D   3      11.243  37.890  86.941  0.00  0.00    +0.000 C 
ATOM     14  O   GLU D   3      11.074  37.858  85.713  0.00  0.00    +0.000 OA
ATOM     15  CB  GLU D   3      12.823  39.550  87.924  0.00  0.00    +0.000 C 
ATOM     16  CG  GLU D   3      13.514  40.087  86.624  0.00  0.00    +0.000 C 
ATOM     17  CD  GLU D   3      15.010  39.853  86.585  0.00  0.00    +0.000 C 
ATOM     18  OE1 GLU D   3      15.609  39.713  87.685  0.00  0.00    +0.000 OA
ATOM     19  OE2 GLU D   3      15.592  39.825  85.452  0.00  0.00    +0.000 OA
ATOM     20  N   ALA D   4      11.356  36.776  87.677  0.00  0.00    +0.000 N 
ATOM     21  H   ALA D   4      11.365  36.830  88.683  0.00  0.00    +0.000 HD
ATOM     22  CA  ALA D   4      11.255  35.459  87.014  0.00  0.00    +0.000 C 
ATOM     23  C   ALA D   4       9.850  35.258  86.462  0.00  0.00    +0.000 C 
ATOM     24  O   ALA D   4       9.653  34.800  85.348  0.00  0.00    +0.000 OA
ATOM     25  CB  ALA D   4      11.609  34.340  87.987  0.00  0.00    +0.000 C 
ATOM     26  N   NME D   5       8.839  35.611  87.257  0.00  0.00    +0.000 N 
ATOM     27  H   NME D   5       9.045  36.023  88.159  0.00  0.00    +0.000 HD
ATOM     28  C   NME D   5       7.457  35.477  86.807  0.00  0.00    +0.000 C 
TER 
REMARK  Name = /home/xianyang/aimnet2_score_pipelines/work/L1234-fixed-receptor-eint-20260921/L1/P06239/prepared.pdb
REMARK                            x       y       z     vdW  Elec       q    Type
REMARK                         _______ _______ _______ _____ _____    ______ ____
ATOM      1  CH3 ACE E   1      16.427  37.934  71.588  0.00  0.00    +0.000 C 
ATOM      2  C   ACE E   1      16.369  38.420  73.047  0.00  0.00    +0.000 C 
ATOM      3  O   ACE E   1      16.849  39.506  73.342  0.00  0.00    +0.000 OA
ATOM      4  N   LEU E   2      15.673  37.680  73.918  0.00  0.00    +0.000 N 
ATOM      5  H   LEU E   2      15.333  36.781  73.613  0.00  0.00    +0.000 HD
ATOM      6  CA  LEU E   2      15.595  37.956  75.366  0.00  0.00    +0.000 C 
ATOM      7  C   LEU E   2      16.261  36.823  76.189  0.00  0.00    +0.000 C 
ATOM      8  O   LEU E   2      16.035  35.652  75.890  0.00  0.00    +0.000 OA
ATOM      9  CB  LEU E   2      14.140  38.104  75.859  0.00  0.00    +0.000 C 
ATOM     10  CG  LEU E   2      13.449  39.474  75.631  0.00  0.00    +0.000 C 
ATOM     11  CD1 LEU E   2      13.525  39.871  74.166  0.00  0.00    +0.000 C 
ATOM     12  CD2 LEU E   2      11.972  39.426  76.097  0.00  0.00    +0.000 C 
ATOM     13  N   VAL E   3      17.114  37.172  77.153  0.00  0.00    +0.000 N 
ATOM     14  H   VAL E   3      17.265  38.155  77.356  0.00  0.00    +0.000 HD
ATOM     15  CA  VAL E   3      17.729  36.170  78.009  0.00  0.00    +0.000 C 
ATOM     16  C   VAL E   3      16.589  35.341  78.595  0.00  0.00    +0.000 C 
ATOM     17  O   VAL E   3      15.607  35.898  79.118  0.00  0.00    +0.000 OA
ATOM     18  CB  VAL E   3      18.612  36.847  79.115  0.00  0.00    +0.000 C 
ATOM     19  CG1 VAL E   3      18.976  35.830  80.239  0.00  0.00    +0.000 C 
ATOM     20  CG2 VAL E   3      19.908  37.376  78.452  0.00  0.00    +0.000 C 
ATOM     21  N   ARG E   4      16.655  34.034  78.353  0.00  0.00    +0.000 N 
ATOM     22  H   ARG E   4      17.396  33.708  77.722  0.00  0.00    +0.000 HD
ATOM     23  CA  ARG E   4      15.582  33.093  78.747  0.00  0.00    +0.000 C 
ATOM     24  C   ARG E   4      15.638  32.574  80.157  0.00  0.00    +0.000 C 
ATOM     25  O   ARG E   4      16.711  32.175  80.623  0.00  0.00    +0.000 OA
ATOM     26  CB  ARG E   4      15.586  31.885  77.760  0.00  0.00    +0.000 C 
ATOM     27  CG  ARG E   4      14.425  30.854  77.977  0.00  0.00    +0.000 C 
ATOM     28  CD  ARG E   4      14.589  29.621  77.023  0.00  0.00    +0.000 C 
ATOM     29  NE  ARG E   4      13.653  28.529  77.330  0.00  0.00    +0.000 N 
ATOM     30  HE  ARG E   4      12.825  28.453  76.764  0.00  0.00    +0.000 HD
ATOM     31  CZ  ARG E   4      13.839  27.642  78.306  0.00  0.00    +0.000 C 
ATOM     32  NH1 ARG E   4      14.931  27.696  79.064  0.00  0.00    +0.000 N 
ATOM     33 HH11 ARG E   4      15.150  26.929  79.704  0.00  0.00    +0.000 HD
ATOM     34 HH12 ARG E   4      15.603  28.431  78.886  0.00  0.00    +0.000 HD
ATOM     35  NH2 ARG E   4      12.917  26.721  78.546  0.00  0.00    +0.000 N 
ATOM     36 HH21 ARG E   4      12.075  26.687  77.999  0.00  0.00    +0.000 HD
ATOM     37 HH22 ARG E   4      13.011  26.135  79.354  0.00  0.00    +0.000 HD
ATOM     38  N   NME E   5      14.497  32.607  80.849  0.00  0.00    +0.000 N 
ATOM     39  H   NME E   5      13.689  33.061  80.450  0.00  0.00    +0.000 HD
ATOM     40  C   NME E   5      14.419  32.026  82.175  0.00  0.00    +0.000 C 
TER 
REMARK  Name = /home/xianyang/aimnet2_score_pipelines/work/L1234-fixed-receptor-eint-20260921/L1/P06239/prepared.pdb
REMARK                            x       y       z     vdW  Elec       q    Type
REMARK                         _______ _______ _______ _____ _____    ______ ____
ATOM      1  CH3 ACE F   1      16.629  32.619  89.430  0.00  0.00    +0.000 C 
ATOM      2  C   ACE F   1      17.709  32.110  88.468  0.00  0.00    +0.000 C 
ATOM      3  O   ACE F   1      18.834  32.649  88.420  0.00  0.00    +0.000 OA
ATOM      4  N   ILE F   2      17.421  31.047  87.742  0.00  0.00    +0.000 N 
ATOM      5  H   ILE F   2      16.492  30.656  87.754  0.00  0.00    +0.000 HD
ATOM      6  CA  ILE F   2      18.429  30.500  86.833  0.00  0.00    +0.000 C 
ATOM      7  C   ILE F   2      18.094  30.888  85.408  0.00  0.00    +0.000 C 
ATOM      8  O   ILE F   2      16.958  30.735  84.988  0.00  0.00    +0.000 OA
ATOM      9  CB  ILE F   2      18.532  28.945  86.945  0.00  0.00    +0.000 C 
ATOM     10  CG1 ILE F   2      18.799  28.533  88.401  0.00  0.00    +0.000 C 
ATOM     11  CG2 ILE F   2      19.664  28.420  86.046  0.00  0.00    +0.000 C 
ATOM     12  CD1 ILE F   2      17.513  28.158  89.123  0.00  0.00    +0.000 C 
ATOM     13  N   THR F   3      19.069  31.406  84.672  0.00  0.00    +0.000 N 
ATOM     14  H   THR F   3      20.003  31.521  85.057  0.00  0.00    +0.000 HD
ATOM     15  CA  THR F   3      18.801  31.849  83.327  0.00  0.00    +0.000 C 
ATOM     16  C   THR F   3      19.836  31.360  82.341  0.00  0.00    +0.000 C 
ATOM     17  O   THR F   3      20.829  30.707  82.705  0.00  0.00    +0.000 OA
ATOM     18  CB  THR F   3      18.795  33.443  83.208  0.00  0.00    +0.000 C 
ATOM     19  OG1 THR F   3      20.135  33.944  83.317  0.00  0.00    +0.000 OA
ATOM     20  HG1 THR F   3      20.472  34.045  82.444  0.00  0.00    +0.000 HD
ATOM     21  CG2 THR F   3      17.941  34.094  84.309  0.00  0.00    +0.000 C 
ATOM     22  N   GLU F   4      19.546  31.668  81.073  0.00  0.00    +0.000 N 
ATOM     23  H   GLU F   4      18.656  32.120  80.883  0.00  0.00    +0.000 HD
ATOM     24  CA  GLU F   4      20.406  31.390  79.925  0.00  0.00    +0.000 C 
ATOM     25  C   GLU F   4      21.746  32.105  80.164  0.00  0.00    +0.000 C 
ATOM     26  O   GLU F   4      21.770  33.266  80.625  0.00  0.00    +0.000 OA
ATOM     27  CB  GLU F   4      19.697  32.000  78.689  0.00  0.00    +0.000 C 
ATOM     28  CG  GLU F   4      20.403  31.836  77.334  0.00  0.00    +0.000 C 
ATOM     29  CD  GLU F   4      19.526  32.312  76.153  0.00  0.00    +0.000 C 
ATOM     30  OE1 GLU F   4      18.590  33.110  76.366  0.00  0.00    +0.000 OA
ATOM     31  OE2 GLU F   4      19.786  31.895  74.992  0.00  0.00    +0.000 OA
ATOM     32  N   TYR F   5      22.845  31.425  79.833  0.00  0.00    +0.000 N 
ATOM     33  H   TYR F   5      22.749  30.519  79.399  0.00  0.00    +0.000 HD
ATOM     34  CA  TYR F   5      24.194  31.946  79.996  0.00  0.00    +0.000 C 
ATOM     35  C   TYR F   5      24.679  32.630  78.718  0.00  0.00    +0.000 C 
ATOM     36  O   TYR F   5      24.588  32.055  77.646  0.00  0.00    +0.000 OA
ATOM     37  CB  TYR F   5      25.127  30.784  80.307  0.00  0.00    +0.000 C 
ATOM     38  CG  TYR F   5      26.586  31.175  80.412  0.00  0.00    +0.000 A 
ATOM     39  CD1 TYR F   5      27.507  30.641  79.536  0.00  0.00    +0.000 A 
ATOM     40  CD2 TYR F   5      27.032  32.056  81.395  0.00  0.00    +0.000 A 
ATOM     41  CE1 TYR F   5      28.838  30.963  79.622  0.00  0.00    +0.000 A 
ATOM     42  CE2 TYR F   5      28.398  32.393  81.499  0.00  0.00    +0.000 A 
ATOM     43  CZ  TYR F   5      29.282  31.831  80.592  0.00  0.00    +0.000 A 
ATOM     44  OH  TYR F   5      30.605  32.172  80.614  0.00  0.00    +0.000 OA
ATOM     45  HH  TYR F   5      30.778  33.047  80.318  0.00  0.00    +0.000 HD
ATOM     46  N   MET F   6      25.230  33.826  78.851  0.00  0.00    +0.000 N 
ATOM     47  H   MET F   6      25.316  34.222  79.773  0.00  0.00    +0.000 HD
ATOM     48  CA  MET F   6      25.733  34.612  77.702  0.00  0.00    +0.000 C 
ATOM     49  C   MET F   6      27.225  34.826  77.917  0.00  0.00    +0.000 C 
ATOM     50  O   MET F   6      27.678  35.630  78.741  0.00  0.00    +0.000 OA
ATOM     51  CB  MET F   6      24.936  35.929  77.662  0.00  0.00    +0.000 C 
ATOM     52  CG  MET F   6      23.415  35.686  77.475  0.00  0.00    +0.000 C 
ATOM     53  SD  MET F   6      23.081  34.959  75.864  0.00  0.00    +0.000 S 
ATOM     54  CE  MET F   6      23.496  36.172  74.813  0.00  0.00    +0.000 C 
ATOM     55  N   GLU F   7      27.998  34.004  77.225  0.00  0.00    +0.000 N 
ATOM     56  H   GLU F   7      27.559  33.299  76.651  0.00  0.00    +0.000 HD
ATOM     57  CA  GLU F   7      29.433  33.933  77.394  0.00  0.00    +0.000 C 
ATOM     58  C   GLU F   7      30.271  35.225  77.440  0.00  0.00    +0.000 C 
ATOM     59  O   GLU F   7      31.225  35.342  78.238  0.00  0.00    +0.000 OA
ATOM     60  CB  GLU F   7      29.989  32.986  76.317  0.00  0.00    +0.000 C 
ATOM     61  CG  GLU F   7      31.462  32.922  76.271  0.00  0.00    +0.000 C 
ATOM     62  CD  GLU F   7      31.934  31.545  76.529  0.00  0.00    +0.000 C 
ATOM     63  OE1 GLU F   7      32.143  31.198  77.738  0.00  0.00    +0.000 OA
ATOM     64  OE2 GLU F   7      31.959  30.741  75.562  0.00  0.00    +0.000 OA
ATOM     65  N   ASN F   8      29.928  36.181  76.579  0.00  0.00    +0.000 N 
ATOM     66  H   ASN F   8      29.086  36.073  76.028  0.00  0.00    +0.000 HD
ATOM     67  CA  ASN F   8      30.664  37.418  76.483  0.00  0.00    +0.000 C 
ATOM     68  C   ASN F   8      30.173  38.555  77.364  0.00  0.00    +0.000 C 
ATOM     69  O   ASN F   8      30.599  39.689  77.211  0.00  0.00    +0.000 OA
ATOM     70  CB  ASN F   8      30.812  37.808  74.991  0.00  0.00    +0.000 C 
ATOM     71  CG  ASN F   8      31.833  36.914  74.270  0.00  0.00    +0.000 C 
ATOM     72  OD1 ASN F   8      32.960  36.707  74.772  0.00  0.00    +0.000 OA
ATOM     73  ND2 ASN F   8      31.452  36.346  73.151  0.00  0.00    +0.000 N 
ATOM     74 HD21 ASN F   8      30.533  36.505  72.792  0.00  0.00    +0.000 HD
ATOM     75 HD22 ASN F   8      32.112  35.707  72.751  0.00  0.00    +0.000 HD
ATOM     76  N   GLY F   9      29.238  38.237  78.269  0.00  0.00    +0.000 N 
ATOM     77  H   GLY F   9      28.903  37.282  78.334  0.00  0.00    +0.000 HD
ATOM     78  CA  GLY F   9      28.783  39.238  79.235  0.00  0.00    +0.000 C 
ATOM     79  C   GLY F   9      28.136  40.486  78.701  0.00  0.00    +0.000 C 
ATOM     80  O   GLY F   9      27.537  40.429  77.649  0.00  0.00    +0.000 OA
ATOM     81  N   SER F  10      28.234  41.597  79.422  0.00  0.00    +0.000 N 
ATOM     82  H   SER F  10      28.763  41.611  80.282  0.00  0.00    +0.000 HD
ATOM     83  CA  SER F  10      27.601  42.830  78.975  0.00  0.00    +0.000 C 
ATOM     84  C   SER F  10      28.238  43.441  77.759  0.00  0.00    +0.000 C 
ATOM     85  O   SER F  10      29.475  43.522  77.636  0.00  0.00    +0.000 OA
ATOM     86  CB  SER F  10      27.551  43.892  80.118  0.00  0.00    +0.000 C 
ATOM     87  OG  SER F  10      26.697  43.489  81.181  0.00  0.00    +0.000 OA
ATOM     88  HG  SER F  10      25.797  43.873  81.040  0.00  0.00    +0.000 HD
ATOM     89  N   LEU F  11      27.387  43.900  76.853  0.00  0.00    +0.000 N 
ATOM     90  H   LEU F  11      26.393  43.763  77.001  0.00  0.00    +0.000 HD
ATOM     91  CA  LEU F  11      27.840  44.535  75.644  0.00  0.00    +0.000 C 
ATOM     92  C   LEU F  11      28.749  45.740  75.945  0.00  0.00    +0.000 C 
ATOM     93  O   LEU F  11      29.777  45.913  75.288  0.00  0.00    +0.000 OA
ATOM     94  CB  LEU F  11      26.642  45.033  74.833  0.00  0.00    +0.000 C 
ATOM     95  CG  LEU F  11      26.955  45.780  73.529  0.00  0.00    +0.000 C 
ATOM     96  CD1 LEU F  11      27.664  44.823  72.523  0.00  0.00    +0.000 C 
ATOM     97  CD2 LEU F  11      25.617  46.220  72.922  0.00  0.00    +0.000 C 
ATOM     98  N   VAL F  12      28.395  46.537  76.950  0.00  0.00    +0.000 N 
ATOM     99  H   VAL F  12      27.543  46.346  77.460  0.00  0.00    +0.000 HD
ATOM    100  CA  VAL F  12      29.227  47.692  77.284  0.00  0.00    +0.000 C 
ATOM    101  C   VAL F  12      30.668  47.301  77.634  0.00  0.00    +0.000 C 
ATOM    102  O   VAL F  12      31.578  48.063  77.344  0.00  0.00    +0.000 OA
ATOM    103  CB  VAL F  12      28.601  48.567  78.411  0.00  0.00    +0.000 C 
ATOM    104  CG1 VAL F  12      28.897  47.976  79.791  0.00  0.00    +0.000 C 
ATOM    105  CG2 VAL F  12      29.125  49.976  78.262  0.00  0.00    +0.000 C 
ATOM    106  N   ASP F  13      30.850  46.118  78.250  0.00  0.00    +0.000 N 
ATOM    107  H   ASP F  13      30.059  45.522  78.427  0.00  0.00    +0.000 HD
ATOM    108  CA  ASP F  13      32.183  45.599  78.576  0.00  0.00    +0.000 C 
ATOM    109  C   ASP F  13      32.814  44.878  77.374  0.00  0.00    +0.000 C 
ATOM    110  O   ASP F  13      34.010  45.097  77.041  0.00  0.00    +0.000 OA
ATOM    111  CB  ASP F  13      32.137  44.627  79.786  0.00  0.00    +0.000 C 
ATOM    112  CG  ASP F  13      31.682  45.309  81.073  0.00  0.00    +0.000 C 
ATOM    113  OD1 ASP F  13      31.907  46.527  81.226  0.00  0.00    +0.000 OA
ATOM    114  OD2 ASP F  13      31.114  44.620  81.945  0.00  0.00    +0.000 OA
ATOM    115  N   PHE F  14      32.041  44.008  76.712  0.00  0.00    +0.000 N 
ATOM    116  H   PHE F  14      31.108  43.849  77.035  0.00  0.00    +0.000 HD
ATOM    117  CA  PHE F  14      32.533  43.275  75.550  0.00  0.00    +0.000 C 
ATOM    118  C   PHE F  14      33.179  44.164  74.441  0.00  0.00    +0.000 C 
ATOM    119  O   PHE F  14      34.170  43.765  73.827  0.00  0.00    +0.000 OA
ATOM    120  CB  PHE F  14      31.417  42.452  74.872  0.00  0.00    +0.000 C 
ATOM    121  CG  PHE F  14      31.863  41.778  73.574  0.00  0.00    +0.000 A 
ATOM    122  CD1 PHE F  14      32.755  40.715  73.600  0.00  0.00    +0.000 A 
ATOM    123  CD2 PHE F  14      31.399  42.238  72.335  0.00  0.00    +0.000 A 
ATOM    124  CE1 PHE F  14      33.197  40.104  72.401  0.00  0.00    +0.000 A 
ATOM    125  CE2 PHE F  14      31.816  41.666  71.151  0.00  0.00    +0.000 A 
ATOM    126  CZ  PHE F  14      32.733  40.585  71.193  0.00  0.00    +0.000 A 
ATOM    127  N   NME F  15      32.577  45.326  74.176  0.00  0.00    +0.000 N 
ATOM    128  H   NME F  15      31.776  45.597  74.737  0.00  0.00    +0.000 HD
ATOM    129  C   NME F  15      33.076  46.237  73.130  0.00  0.00    +0.000 C 
TER 
REMARK  Name = /home/xianyang/aimnet2_score_pipelines/work/L1234-fixed-receptor-eint-20260921/L1/P06239/prepared.pdb
REMARK                            x       y       z     vdW  Elec       q    Type
REMARK                         _______ _______ _______ _____ _____    ______ ____
ATOM      1  CH3 ACE G   1      21.398  50.414  78.170  0.00  0.00    +0.000 C 
ATOM      2  C   ACE G   1      22.324  49.265  77.787  0.00  0.00    +0.000 C 
ATOM      3  O   ACE G   1      21.982  48.103  78.058  0.00  0.00    +0.000 OA
ATOM      4  N   ALA G   2      23.516  49.586  77.286  0.00  0.00    +0.000 N 
ATOM      5  H   ALA G   2      23.724  50.553  77.086  0.00  0.00    +0.000 HD
ATOM      6  CA  ALA G   2      24.460  48.562  76.868  0.00  0.00    +0.000 C 
ATOM      7  C   ALA G   2      24.852  47.653  78.034  0.00  0.00    +0.000 C 
ATOM      8  O   ALA G   2      25.191  46.502  77.806  0.00  0.00    +0.000 OA
ATOM      9  CB  ALA G   2      25.733  49.199  76.238  0.00  0.00    +0.000 C 
ATOM     10  N   ALA G   3      24.815  48.157  79.278  0.00  0.00    +0.000 N 
ATOM     11  H   ALA G   3      24.543  49.112  79.447  0.00  0.00    +0.000 HD
ATOM     12  CA  ALA G   3      25.163  47.268  80.399  0.00  0.00    +0.000 C 
ATOM     13  C   ALA G   3      24.161  46.098  80.500  0.00  0.00    +0.000 C 
ATOM     14  O   ALA G   3      24.511  44.968  80.918  0.00  0.00    +0.000 OA
ATOM     15  CB  ALA G   3      25.235  48.038  81.749  0.00  0.00    +0.000 C 
ATOM     16  N   ASN G   4      22.935  46.343  80.058  0.00  0.00    +0.000 N 
ATOM     17  H   ASN G   4      22.716  47.232  79.632  0.00  0.00    +0.000 HD
ATOM     18  CA  ASN G   4      21.888  45.330  80.097  0.00  0.00    +0.000 C 
ATOM     19  C   ASN G   4      21.616  44.538  78.810  0.00  0.00    +0.000 C 
ATOM     20  O   ASN G   4      20.531  43.978  78.607  0.00  0.00    +0.000 OA
ATOM     21  CB  ASN G   4      20.623  45.916  80.696  0.00  0.00    +0.000 C 
ATOM     22  CG  ASN G   4      20.795  46.215  82.153  0.00  0.00    +0.000 C 
ATOM     23  OD1 ASN G   4      21.544  45.516  82.817  0.00  0.00    +0.000 OA
ATOM     24  ND2 ASN G   4      20.176  47.284  82.642  0.00  0.00    +0.000 N 
ATOM     25 HD21 ASN G   4      19.422  47.676  82.129  0.00  0.00    +0.000 HD
ATOM     26 HD22 ASN G   4      20.281  47.381  83.630  0.00  0.00    +0.000 HD
ATOM     27  N   ILE G   5      22.594  44.558  77.910  0.00  0.00    +0.000 N 
ATOM     28  H   ILE G   5      23.465  45.025  78.129  0.00  0.00    +0.000 HD
ATOM     29  CA  ILE G   5      22.513  43.778  76.702  0.00  0.00    +0.000 C 
ATOM     30  C   ILE G   5      23.630  42.766  76.896  0.00  0.00    +0.000 C 
ATOM     31  O   ILE G   5      24.759  43.164  77.265  0.00  0.00    +0.000 OA
ATOM     32  CB  ILE G   5      22.806  44.620  75.434  0.00  0.00    +0.000 C 
ATOM     33  CG1 ILE G   5      21.740  45.735  75.298  0.00  0.00    +0.000 C 
ATOM     34  CG2 ILE G   5      22.870  43.667  74.213  0.00  0.00    +0.000 C 
ATOM     35  CD1 ILE G   5      20.271  45.186  75.440  0.00  0.00    +0.000 C 
ATOM     36  N   LEU G   6      23.310  41.491  76.754  0.00  0.00    +0.000 N 
ATOM     37  H   LEU G   6      22.387  41.252  76.421  0.00  0.00    +0.000 HD
ATOM     38  CA  LEU G   6      24.310  40.410  76.951  0.00  0.00    +0.000 C 
ATOM     39  C   LEU G   6      24.729  39.871  75.607  0.00  0.00    +0.000 C 
ATOM     40  O   LEU G   6      23.922  39.893  74.657  0.00  0.00    +0.000 OA
ATOM     41  CB  LEU G   6      23.697  39.300  77.849  0.00  0.00    +0.000 C 
ATOM     42  CG  LEU G   6      24.000  39.250  79.342  0.00  0.00    +0.000 C 
ATOM     43  CD1 LEU G   6      24.465  40.553  79.905  0.00  0.00    +0.000 C 
ATOM     44  CD2 LEU G   6      22.953  38.500  80.228  0.00  0.00    +0.000 C 
ATOM     45  N   VAL G   7      25.999  39.457  75.505  0.00  0.00    +0.000 N 
ATOM     46  H   VAL G   7      26.611  39.574  76.308  0.00  0.00    +0.000 HD
ATOM     47  CA  VAL G   7      26.568  38.935  74.275  0.00  0.00    +0.000 C 
ATOM     48  C   VAL G   7      26.907  37.437  74.351  0.00  0.00    +0.000 C 
ATOM     49  O   VAL G   7      27.554  36.988  75.265  0.00  0.00    +0.000 OA
ATOM     50  CB  VAL G   7      27.838  39.743  73.853  0.00  0.00    +0.000 C 
ATOM     51  CG1 VAL G   7      28.259  39.341  72.425  0.00  0.00    +0.000 C 
ATOM     52  CG2 VAL G   7      27.569  41.288  73.960  0.00  0.00    +0.000 C 
ATOM     53  N   NME G   8      26.434  36.672  73.372  0.00  0.00    +0.000 N 
ATOM     54  H   NME G   8      25.869  37.103  72.656  0.00  0.00    +0.000 HD
ATOM     55  C   NME G   8      26.662  35.231  73.320  0.00  0.00    +0.000 C 
TER 
REMARK  Name = /home/xianyang/aimnet2_score_pipelines/work/L1234-fixed-receptor-eint-20260921/L1/P06239/prepared.pdb
REMARK                            x       y       z     vdW  Elec       q    Type
REMARK                         _______ _______ _______ _____ _____    ______ ____
ATOM      1  CH3 ACE H   1      20.028  39.568  73.979  0.00  0.00    +0.000 C 
ATOM      2  C   ACE H   1      19.774  40.570  75.101  0.00  0.00    +0.000 C 
ATOM      3  O   ACE H   1      20.688  41.019  75.798  0.00  0.00    +0.000 OA
ATOM      4  N   ILE H   2      18.503  40.923  75.260  0.00  0.00    +0.000 N 
ATOM      5  H   ILE H   2      17.806  40.507  74.649  0.00  0.00    +0.000 HD
ATOM      6  CA  ILE H   2      18.088  41.817  76.308  0.00  0.00    +0.000 C 
ATOM      7  C   ILE H   2      18.052  41.096  77.637  0.00  0.00    +0.000 C 
ATOM      8  O   ILE H   2      17.506  39.972  77.753  0.00  0.00    +0.000 OA
ATOM      9  CB  ILE H   2      16.676  42.413  75.983  0.00  0.00    +0.000 C 
ATOM     10  CG1 ILE H   2      16.740  43.090  74.596  0.00  0.00    +0.000 C 
ATOM     11  CG2 ILE H   2      16.211  43.363  77.114  0.00  0.00    +0.000 C 
ATOM     12  CD1 ILE H   2      15.437  43.643  74.134  0.00  0.00    +0.000 C 
ATOM     13  N   ALA H   3      18.600  41.753  78.665  0.00  0.00    +0.000 N 
ATOM     14  H   ALA H   3      19.023  42.667  78.529  0.00  0.00    +0.000 HD
ATOM     15  CA  ALA H   3      18.646  41.193  79.985  0.00  0.00    +0.000 C 
ATOM     16  C   ALA H   3      18.171  42.187  81.075  0.00  0.00    +0.000 C 
ATOM     17  O   ALA H   3      17.897  43.391  80.826  0.00  0.00    +0.000 OA
ATOM     18  CB  ALA H   3      20.124  40.726  80.309  0.00  0.00    +0.000 C 
ATOM     19  N   ASP H   4      18.143  41.662  82.287  0.00  0.00    +0.000 N 
ATOM     20  H   ASP H   4      18.388  40.693  82.392  0.00  0.00    +0.000 HD
ATOM     21  CA  ASP H   4      17.753  42.393  83.495  0.00  0.00    +0.000 C 
ATOM     22  C   ASP H   4      16.390  43.016  83.401  0.00  0.00    +0.000 C 
ATOM     23  O   ASP H   4      16.241  44.204  83.113  0.00  0.00    +0.000 OA
ATOM     24  CB  ASP H   4      18.777  43.460  83.844  0.00  0.00    +0.000 C 
ATOM     25  CG  ASP H   4      18.576  44.005  85.266  0.00  0.00    +0.000 C 
ATOM     26  OD1 ASP H   4      19.508  44.625  85.778  0.00  0.00    +0.000 OA
ATOM     27  OD2 ASP H   4      17.515  43.747  85.882  0.00  0.00    +0.000 OA
ATOM     28  N   PHE H   5      15.384  42.209  83.699  0.00  0.00    +0.000 N 
ATOM     29  H   PHE H   5      15.590  41.281  84.066  0.00  0.00    +0.000 HD
ATOM     30  CA  PHE H   5      13.996  42.627  83.655  0.00  0.00    +0.000 C 
ATOM     31  C   PHE H   5      13.459  43.104  85.023  0.00  0.00    +0.000 C 
ATOM     32  O   PHE H   5      12.281  43.006  85.287  0.00  0.00    +0.000 OA
ATOM     33  CB  PHE H   5      13.180  41.433  83.124  0.00  0.00    +0.000 C 
ATOM     34  CG  PHE H   5      13.564  41.017  81.709  0.00  0.00    +0.000 A 
ATOM     35  CD1 PHE H   5      12.949  41.607  80.607  0.00  0.00    +0.000 A 
ATOM     36  CD2 PHE H   5      14.592  40.111  81.489  0.00  0.00    +0.000 A 
ATOM     37  CE1 PHE H   5      13.380  41.293  79.283  0.00  0.00    +0.000 A 
ATOM     38  CE2 PHE H   5      15.013  39.802  80.166  0.00  0.00    +0.000 A 
ATOM     39  CZ  PHE H   5      14.408  40.400  79.082  0.00  0.00    +0.000 A 
ATOM     40  N   GLY H   6      14.351  43.566  85.891  0.00  0.00    +0.000 N 
ATOM     41  H   GLY H   6      15.340  43.587  85.642  0.00  0.00    +0.000 HD
ATOM     42  CA  GLY H   6      13.939  44.014  87.221  0.00  0.00    +0.000 C 
ATOM     43  C   GLY H   6      12.934  45.151  87.217  0.00  0.00    +0.000 C 
ATOM     44  O   GLY H   6      11.997  45.191  88.033  0.00  0.00    +0.000 OA
ATOM     45  N   NME H   7      13.131  46.103  86.303  0.00  0.00    +0.000 N 
ATOM     46  H   NME H   7      13.900  46.009  85.653  0.00  0.00    +0.000 HD
ATOM     47  C   NME H   7      12.224  47.217  86.224  0.00  0.00    +0.000 C 
TER 
