REMARK  Name = /home/xianyang/aimnet2_score_pipelines/work/L1234-fixed-receptor-eint-20260921/L4/P50052/prepared.pdb
REMARK                            x       y       z     vdW  Elec       q    Type
REMARK                         _______ _______ _______ _____ _____    ______ ____
ATOM      1  CH3 ACE A   1      60.005  -1.688  -7.086  0.00  0.00    +0.000 C 
ATOM      2  C   ACE A   1      61.494  -1.803  -6.738  0.00  0.00    +0.000 C 
ATOM      3  O   ACE A   1      61.838  -2.502  -5.787  0.00  0.00    +0.000 OA
ATOM      4  N   ALA A   2      62.369  -1.125  -7.515  0.00  0.00    +0.000 N 
ATOM      5  H   ALA A   2      61.998  -0.631  -8.310  0.00  0.00    +0.000 HD
ATOM      6  CA  ALA A   2      63.820  -1.120  -7.334  0.00  0.00    +0.000 C 
ATOM      7  C   ALA A   2      64.230  -0.431  -6.026  0.00  0.00    +0.000 C 
ATOM      8  O   ALA A   2      65.138  -0.914  -5.364  0.00  0.00    +0.000 OA
ATOM      9  CB  ALA A   2      64.483  -0.425  -8.507  0.00  0.00    +0.000 C 
ATOM     10  N   ILE A   3      63.563   0.688  -5.657  0.00  0.00    +0.000 N 
ATOM     11  H   ILE A   3      62.827   1.008  -6.265  0.00  0.00    +0.000 HD
ATOM     12  CA  ILE A   3      63.848   1.487  -4.453  0.00  0.00    +0.000 C 
ATOM     13  C   ILE A   3      63.834   0.575  -3.176  0.00  0.00    +0.000 C 
ATOM     14  O   ILE A   3      64.875   0.518  -2.534  0.00  0.00    +0.000 OA
ATOM     15  CB  ILE A   3      62.850   2.685  -4.310  0.00  0.00    +0.000 C 
ATOM     16  CG1 ILE A   3      63.067   3.743  -5.423  0.00  0.00    +0.000 C 
ATOM     17  CG2 ILE A   3      62.898   3.338  -2.920  0.00  0.00    +0.000 C 
ATOM     18  CD1 ILE A   3      64.472   4.433  -5.453  0.00  0.00    +0.000 C 
ATOM     19  N   PRO A   4      62.758  -0.174  -2.794  0.00  0.00    +0.000 N 
ATOM     20  CA  PRO A   4      62.854  -1.003  -1.574  0.00  0.00    +0.000 C 
ATOM     21  C   PRO A   4      63.954  -2.073  -1.662  0.00  0.00    +0.000 C 
ATOM     22  O   PRO A   4      64.543  -2.400  -0.633  0.00  0.00    +0.000 OA
ATOM     23  CB  PRO A   4      61.477  -1.659  -1.482  0.00  0.00    +0.000 C 
ATOM     24  CG  PRO A   4      60.577  -0.765  -2.239  0.00  0.00    +0.000 C 
ATOM     25  CD  PRO A   4      61.405  -0.269  -3.381  0.00  0.00    +0.000 C 
ATOM     26  N   ILE A   5      64.257  -2.587  -2.883  0.00  0.00    +0.000 N 
ATOM     27  H   ILE A   5      63.739  -2.256  -3.684  0.00  0.00    +0.000 HD
ATOM     28  CA  ILE A   5      65.310  -3.592  -3.107  0.00  0.00    +0.000 C 
ATOM     29  C   ILE A   5      66.691  -2.941  -2.857  0.00  0.00    +0.000 C 
ATOM     30  O   ILE A   5      67.462  -3.469  -2.057  0.00  0.00    +0.000 OA
ATOM     31  CB  ILE A   5      65.222  -4.225  -4.531  0.00  0.00    +0.000 C 
ATOM     32  CG1 ILE A   5      63.854  -4.932  -4.746  0.00  0.00    +0.000 C 
ATOM     33  CG2 ILE A   5      66.392  -5.193  -4.771  0.00  0.00    +0.000 C 
ATOM     34  CD1 ILE A   5      63.538  -5.405  -6.189  0.00  0.00    +0.000 C 
ATOM     35  N   LEU A   6      66.977  -1.790  -3.515  0.00  0.00    +0.000 N 
ATOM     36  H   LEU A   6      66.267  -1.421  -4.134  0.00  0.00    +0.000 HD
ATOM     37  CA  LEU A   6      68.230  -1.030  -3.392  0.00  0.00    +0.000 C 
ATOM     38  C   LEU A   6      68.502  -0.619  -1.943  0.00  0.00    +0.000 C 
ATOM     39  O   LEU A   6      69.644  -0.701  -1.503  0.00  0.00    +0.000 OA
ATOM     40  CB  LEU A   6      68.195   0.223  -4.284  0.00  0.00    +0.000 C 
ATOM     41  CG  LEU A   6      68.806   0.139  -5.704  0.00  0.00    +0.000 C 
ATOM     42  CD1 LEU A   6      68.207  -0.986  -6.542  0.00  0.00    +0.000 C 
ATOM     43  CD2 LEU A   6      68.645   1.455  -6.436  0.00  0.00    +0.000 C 
ATOM     44  N   TYR A   7      67.458  -0.211  -1.204  0.00  0.00    +0.000 N 
ATOM     45  H   TYR A   7      66.549  -0.168  -1.651  0.00  0.00    +0.000 HD
ATOM     46  CA  TYR A   7      67.549   0.192   0.204  0.00  0.00    +0.000 C 
ATOM     47  C   TYR A   7      67.984  -0.994   1.099  0.00  0.00    +0.000 C 
ATOM     48  O   TYR A   7      68.752  -0.774   2.032  0.00  0.00    +0.000 OA
ATOM     49  CB  TYR A   7      66.203   0.767   0.689  0.00  0.00    +0.000 C 
ATOM     50  CG  TYR A   7      66.016   2.250   0.410  0.00  0.00    +0.000 A 
ATOM     51  CD1 TYR A   7      66.134   2.757  -0.881  0.00  0.00    +0.000 A 
ATOM     52  CD2 TYR A   7      65.554   3.110   1.401  0.00  0.00    +0.000 A 
ATOM     53  CE1 TYR A   7      65.943   4.109  -1.146  0.00  0.00    +0.000 A 
ATOM     54  CE2 TYR A   7      65.325   4.460   1.140  0.00  0.00    +0.000 A 
ATOM     55  CZ  TYR A   7      65.514   4.953  -0.139  0.00  0.00    +0.000 A 
ATOM     56  OH  TYR A   7      65.295   6.280  -0.404  0.00  0.00    +0.000 OA
ATOM     57  HH  TYR A   7      65.750   6.563  -1.219  0.00  0.00    +0.000 HD
ATOM     58  N   TYR A   8      67.542  -2.236   0.799  0.00  0.00    +0.000 N 
ATOM     59  H   TYR A   8      66.906  -2.366   0.022  0.00  0.00    +0.000 HD
ATOM     60  CA  TYR A   8      67.968  -3.409   1.570  0.00  0.00    +0.000 C 
ATOM     61  C   TYR A   8      69.385  -3.849   1.165  0.00  0.00    +0.000 C 
ATOM     62  O   TYR A   8      70.100  -4.387   2.012  0.00  0.00    +0.000 OA
ATOM     63  CB  TYR A   8      66.998  -4.594   1.436  0.00  0.00    +0.000 C 
ATOM     64  CG  TYR A   8      65.839  -4.545   2.408  0.00  0.00    +0.000 A 
ATOM     65  CD1 TYR A   8      65.988  -4.974   3.724  0.00  0.00    +0.000 A 
ATOM     66  CD2 TYR A   8      64.572  -4.151   1.993  0.00  0.00    +0.000 A 
ATOM     67  CE1 TYR A   8      64.928  -4.932   4.624  0.00  0.00    +0.000 A 
ATOM     68  CE2 TYR A   8      63.498  -4.125   2.879  0.00  0.00    +0.000 A 
ATOM     69  CZ  TYR A   8      63.682  -4.514   4.196  0.00  0.00    +0.000 A 
ATOM     70  OH  TYR A   8      62.634  -4.492   5.087  0.00  0.00    +0.000 OA
ATOM     71  HH  TYR A   8      62.814  -4.999   5.881  0.00  0.00    +0.000 HD
ATOM     72  N   NME A   9      69.801  -3.607  -0.109  0.00  0.00    +0.000 N 
ATOM     73  H   NME A   9      69.150  -3.165  -0.747  0.00  0.00    +0.000 HD
ATOM     74  C   NME A   9      71.148  -3.962  -0.597  0.00  0.00    +0.000 C 
TER 
REMARK  Name = /home/xianyang/aimnet2_score_pipelines/work/L1234-fixed-receptor-eint-20260921/L4/P50052/prepared.pdb
REMARK                            x       y       z     vdW  Elec       q    Type
REMARK                         _______ _______ _______ _____ _____    ______ ____
ATOM      1  CH3 ACE B   1      75.563   1.486  11.858  0.00  0.00    +0.000 C 
ATOM      2  C   ACE B   1      74.089   1.691  12.333  0.00  0.00    +0.000 C 
ATOM      3  O   ACE B   1      73.209   0.980  11.853  0.00  0.00    +0.000 OA
ATOM      4  N   LEU B   2      73.820   2.700  13.195  0.00  0.00    +0.000 N 
ATOM      5  H   LEU B   2      74.593   3.216  13.584  0.00  0.00    +0.000 HD
ATOM      6  CA  LEU B   2      72.465   3.028  13.652  0.00  0.00    +0.000 C 
ATOM      7  C   LEU B   2      71.672   3.773  12.560  0.00  0.00    +0.000 C 
ATOM      8  O   LEU B   2      70.444   3.665  12.533  0.00  0.00    +0.000 OA
ATOM      9  CB  LEU B   2      72.488   3.872  14.940  0.00  0.00    +0.000 C 
ATOM     10  CG  LEU B   2      73.033   3.205  16.211  0.00  0.00    +0.000 C 
ATOM     11  CD1 LEU B   2      73.099   4.198  17.347  0.00  0.00    +0.000 C 
ATOM     12  CD2 LEU B   2      72.193   1.992  16.620  0.00  0.00    +0.000 C 
ATOM     13  N   LEU B   3      72.363   4.535  11.679  0.00  0.00    +0.000 N 
ATOM     14  H   LEU B   3      73.359   4.608  11.802  0.00  0.00    +0.000 HD
ATOM     15  CA  LEU B   3      71.736   5.258  10.561  0.00  0.00    +0.000 C 
ATOM     16  C   LEU B   3      71.220   4.268   9.514  0.00  0.00    +0.000 C 
ATOM     17  O   LEU B   3      70.081   4.388   9.065  0.00  0.00    +0.000 OA
ATOM     18  CB  LEU B   3      72.737   6.246   9.920  0.00  0.00    +0.000 C 
ATOM     19  CG  LEU B   3      72.239   7.097   8.739  0.00  0.00    +0.000 C 
ATOM     20  CD1 LEU B   3      71.167   8.081   9.178  0.00  0.00    +0.000 C 
ATOM     21  CD2 LEU B   3      73.381   7.867   8.116  0.00  0.00    +0.000 C 
ATOM     22  N   LEU B   4      72.066   3.278   9.145  0.00  0.00    +0.000 N 
ATOM     23  H   LEU B   4      72.965   3.247   9.595  0.00  0.00    +0.000 HD
ATOM     24  CA  LEU B   4      71.761   2.218   8.179  0.00  0.00    +0.000 C 
ATOM     25  C   LEU B   4      70.710   1.259   8.733  0.00  0.00    +0.000 C 
ATOM     26  O   LEU B   4      70.001   0.626   7.954  0.00  0.00    +0.000 OA
ATOM     27  CB  LEU B   4      73.039   1.442   7.812  0.00  0.00    +0.000 C 
ATOM     28  CG  LEU B   4      74.106   2.203   7.023  0.00  0.00    +0.000 C 
ATOM     29  CD1 LEU B   4      75.430   1.549   7.152  0.00  0.00    +0.000 C 
ATOM     30  CD2 LEU B   4      73.710   2.400   5.565  0.00  0.00    +0.000 C 
ATOM     31  N   NME B   5      70.580   1.184  10.077  0.00  0.00    +0.000 N 
ATOM     32  H   NME B   5      71.221   1.719  10.643  0.00  0.00    +0.000 HD
ATOM     33  C   NME B   5      69.604   0.336  10.771  0.00  0.00    +0.000 C 
TER 
REMARK  Name = /home/xianyang/aimnet2_score_pipelines/work/L1234-fixed-receptor-eint-20260921/L4/P50052/prepared.pdb
REMARK                            x       y       z     vdW  Elec       q    Type
REMARK                         _______ _______ _______ _____ _____    ______ ____
ATOM      1  CH3 ACE C   1      66.688   1.546   6.062  0.00  0.00    +0.000 C 
ATOM      2  C   ACE C   1      65.532   0.514   5.958  0.00  0.00    +0.000 C 
ATOM      3  O   ACE C   1      64.650   0.758   5.129  0.00  0.00    +0.000 OA
ATOM      4  N   PRO C   2      65.429  -0.571   6.790  0.00  0.00    +0.000 N 
ATOM      5  CA  PRO C   2      64.271  -1.482   6.650  0.00  0.00    +0.000 C 
ATOM      6  C   PRO C   2      62.924  -0.766   6.854  0.00  0.00    +0.000 C 
ATOM      7  O   PRO C   2      61.934  -1.190   6.261  0.00  0.00    +0.000 OA
ATOM      8  CB  PRO C   2      64.499  -2.523   7.751  0.00  0.00    +0.000 C 
ATOM      9  CG  PRO C   2      65.952  -2.502   7.995  0.00  0.00    +0.000 C 
ATOM     10  CD  PRO C   2      66.359  -1.067   7.828  0.00  0.00    +0.000 C 
ATOM     11  N   LEU C   3      62.895   0.336   7.648  0.00  0.00    +0.000 N 
ATOM     12  H   LEU C   3      63.752   0.613   8.100  0.00  0.00    +0.000 HD
ATOM     13  CA  LEU C   3      61.685   1.125   7.893  0.00  0.00    +0.000 C 
ATOM     14  C   LEU C   3      61.266   1.925   6.669  0.00  0.00    +0.000 C 
ATOM     15  O   LEU C   3      60.088   1.907   6.323  0.00  0.00    +0.000 OA
ATOM     16  CB  LEU C   3      61.866   2.100   9.069  0.00  0.00    +0.000 C 
ATOM     17  CG  LEU C   3      62.059   1.528  10.459  0.00  0.00    +0.000 C 
ATOM     18  CD1 LEU C   3      62.402   2.622  11.433  0.00  0.00    +0.000 C 
ATOM     19  CD2 LEU C   3      60.819   0.786  10.936  0.00  0.00    +0.000 C 
ATOM     20  N   TRP C   4      62.209   2.652   6.032  0.00  0.00    +0.000 N 
ATOM     21  H   TRP C   4      63.160   2.625   6.369  0.00  0.00    +0.000 HD
ATOM     22  CA  TRP C   4      61.898   3.521   4.893  0.00  0.00    +0.000 C 
ATOM     23  C   TRP C   4      61.548   2.685   3.668  0.00  0.00    +0.000 C 
ATOM     24  O   TRP C   4      60.697   3.106   2.888  0.00  0.00    +0.000 OA
ATOM     25  CB  TRP C   4      63.054   4.495   4.562  0.00  0.00    +0.000 C 
ATOM     26  CG  TRP C   4      63.672   5.172   5.759  0.00  0.00    +0.000 A 
ATOM     27  CD1 TRP C   4      64.989   5.139   6.112  0.00  0.00    +0.000 A 
ATOM     28  CD2 TRP C   4      62.974   5.747   6.882  0.00  0.00    +0.000 A 
ATOM     29  NE1 TRP C   4      65.175   5.787   7.313  0.00  0.00    +0.000 N 
ATOM     30  HE1 TRP C   4      66.070   5.905   7.769  0.00  0.00    +0.000 HD
ATOM     31  CE2 TRP C   4      63.951   6.139   7.825  0.00  0.00    +0.000 A 
ATOM     32  CE3 TRP C   4      61.621   5.995   7.171  0.00  0.00    +0.000 A 
ATOM     33  CZ2 TRP C   4      63.620   6.773   9.029  0.00  0.00    +0.000 A 
ATOM     34  CZ3 TRP C   4      61.295   6.616   8.367  0.00  0.00    +0.000 A 
ATOM     35  CH2 TRP C   4      62.287   7.008   9.275  0.00  0.00    +0.000 A 
ATOM     36  N   ALA C   5      62.150   1.489   3.524  0.00  0.00    +0.000 N 
ATOM     37  H   ALA C   5      62.888   1.225   4.169  0.00  0.00    +0.000 HD
ATOM     38  CA  ALA C   5      61.826   0.575   2.427  0.00  0.00    +0.000 C 
ATOM     39  C   ALA C   5      60.404   0.026   2.586  0.00  0.00    +0.000 C 
ATOM     40  O   ALA C   5      59.682  -0.067   1.596  0.00  0.00    +0.000 OA
ATOM     41  CB  ALA C   5      62.831  -0.563   2.375  0.00  0.00    +0.000 C 
ATOM     42  N   THR C   6      59.991  -0.289   3.843  0.00  0.00    +0.000 N 
ATOM     43  H   THR C   6      60.675  -0.230   4.587  0.00  0.00    +0.000 HD
ATOM     44  CA  THR C   6      58.654  -0.797   4.184  0.00  0.00    +0.000 C 
ATOM     45  C   THR C   6      57.625   0.325   3.985  0.00  0.00    +0.000 C 
ATOM     46  O   THR C   6      56.605   0.102   3.343  0.00  0.00    +0.000 OA
ATOM     47  CB  THR C   6      58.639  -1.348   5.627  0.00  0.00    +0.000 C 
ATOM     48  OG1 THR C   6      59.585  -2.408   5.732  0.00  0.00    +0.000 OA
ATOM     49  HG1 THR C   6      60.476  -2.030   5.859  0.00  0.00    +0.000 HD
ATOM     50  CG2 THR C   6      57.288  -1.878   6.043  0.00  0.00    +0.000 C 
ATOM     51  N   TYR C   7      57.920   1.532   4.503  0.00  0.00    +0.000 N 
ATOM     52  H   TYR C   7      58.771   1.618   5.050  0.00  0.00    +0.000 HD
ATOM     53  CA  TYR C   7      57.085   2.730   4.382  0.00  0.00    +0.000 C 
ATOM     54  C   TYR C   7      56.874   3.083   2.892  0.00  0.00    +0.000 C 
ATOM     55  O   TYR C   7      55.743   3.376   2.506  0.00  0.00    +0.000 OA
ATOM     56  CB  TYR C   7      57.739   3.898   5.156  0.00  0.00    +0.000 C 
ATOM     57  CG  TYR C   7      57.025   5.231   5.098  0.00  0.00    +0.000 A 
ATOM     58  CD1 TYR C   7      55.761   5.390   5.659  0.00  0.00    +0.000 A 
ATOM     59  CD2 TYR C   7      57.693   6.377   4.681  0.00  0.00    +0.000 A 
ATOM     60  CE1 TYR C   7      55.125   6.629   5.673  0.00  0.00    +0.000 A 
ATOM     61  CE2 TYR C   7      57.079   7.626   4.710  0.00  0.00    +0.000 A 
ATOM     62  CZ  TYR C   7      55.791   7.747   5.201  0.00  0.00    +0.000 A 
ATOM     63  OH  TYR C   7      55.186   8.975   5.229  0.00  0.00    +0.000 OA
ATOM     64  HH  TYR C   7      55.758   9.665   4.894  0.00  0.00    +0.000 HD
ATOM     65  N   TYR C   8      57.935   2.972   2.053  0.00  0.00    +0.000 N 
ATOM     66  H   TYR C   8      58.852   2.786   2.446  0.00  0.00    +0.000 HD
ATOM     67  CA  TYR C   8      57.847   3.223   0.612  0.00  0.00    +0.000 C 
ATOM     68  C   TYR C   8      57.004   2.133  -0.074  0.00  0.00    +0.000 C 
ATOM     69  O   TYR C   8      56.227   2.459  -0.975  0.00  0.00    +0.000 OA
ATOM     70  CB  TYR C   8      59.250   3.295  -0.015  0.00  0.00    +0.000 C 
ATOM     71  CG  TYR C   8      59.266   3.646  -1.489  0.00  0.00    +0.000 A 
ATOM     72  CD1 TYR C   8      59.373   4.968  -1.909  0.00  0.00    +0.000 A 
ATOM     73  CD2 TYR C   8      59.240   2.654  -2.462  0.00  0.00    +0.000 A 
ATOM     74  CE1 TYR C   8      59.425   5.295  -3.264  0.00  0.00    +0.000 A 
ATOM     75  CE2 TYR C   8      59.271   2.970  -3.818  0.00  0.00    +0.000 A 
ATOM     76  CZ  TYR C   8      59.381   4.291  -4.215  0.00  0.00    +0.000 A 
ATOM     77  OH  TYR C   8      59.419   4.606  -5.551  0.00  0.00    +0.000 OA
ATOM     78  HH  TYR C   8      59.227   5.535  -5.698  0.00  0.00    +0.000 HD
ATOM     79  N   SER C   9      57.160   0.846   0.356  0.00  0.00    +0.000 N 
ATOM     80  H   SER C   9      57.852   0.675   1.075  0.00  0.00    +0.000 HD
ATOM     81  CA  SER C   9      56.436  -0.314  -0.193  0.00  0.00    +0.000 C 
ATOM     82  C   SER C   9      54.927  -0.196   0.007  0.00  0.00    +0.000 C 
ATOM     83  O   SER C   9      54.169  -0.552  -0.898  0.00  0.00    +0.000 OA
ATOM     84  CB  SER C   9      56.916  -1.614   0.444  0.00  0.00    +0.000 C 
ATOM     85  OG  SER C   9      58.272  -1.883   0.137  0.00  0.00    +0.000 OA
ATOM     86  HG  SER C   9      58.830  -1.271   0.645  0.00  0.00    +0.000 HD
ATOM     87  N   TYR C  10      54.488   0.303   1.183  0.00  0.00    +0.000 N 
ATOM     88  H   TYR C  10      55.164   0.513   1.911  0.00  0.00    +0.000 HD
ATOM     89  CA  TYR C  10      53.068   0.467   1.490  0.00  0.00    +0.000 C 
ATOM     90  C   TYR C  10      52.550   1.838   0.976  0.00  0.00    +0.000 C 
ATOM     91  O   TYR C  10      51.538   2.332   1.472  0.00  0.00    +0.000 OA
ATOM     92  CB  TYR C  10      52.810   0.315   3.002  0.00  0.00    +0.000 C 
ATOM     93  CG  TYR C  10      52.927  -1.112   3.497  0.00  0.00    +0.000 A 
ATOM     94  CD1 TYR C  10      51.854  -1.996   3.397  0.00  0.00    +0.000 A 
ATOM     95  CD2 TYR C  10      54.081  -1.561   4.125  0.00  0.00    +0.000 A 
ATOM     96  CE1 TYR C  10      51.952  -3.311   3.854  0.00  0.00    +0.000 A 
ATOM     97  CE2 TYR C  10      54.192  -2.872   4.589  0.00  0.00    +0.000 A 
ATOM     98  CZ  TYR C  10      53.124  -3.745   4.453  0.00  0.00    +0.000 A 
ATOM     99  OH  TYR C  10      53.225  -5.039   4.914  0.00  0.00    +0.000 OA
ATOM    100  HH  TYR C  10      54.073  -5.205   5.334  0.00  0.00    +0.000 HD
ATOM    101  N   ARG C  11      53.210   2.400  -0.075  0.00  0.00    +0.000 N 
ATOM    102  H   ARG C  11      54.054   1.931  -0.375  0.00  0.00    +0.000 HD
ATOM    103  CA  ARG C  11      52.886   3.669  -0.747  0.00  0.00    +0.000 C 
ATOM    104  C   ARG C  11      52.670   4.791   0.294  0.00  0.00    +0.000 C 
ATOM    105  O   ARG C  11      51.647   5.476   0.289  0.00  0.00    +0.000 OA
ATOM    106  CB  ARG C  11      51.659   3.532  -1.669  0.00  0.00    +0.000 C 
ATOM    107  CG  ARG C  11      51.923   2.891  -3.038  0.00  0.00    +0.000 C 
ATOM    108  CD  ARG C  11      52.433   1.459  -3.002  0.00  0.00    +0.000 C 
ATOM    109  NE  ARG C  11      52.530   0.879  -4.343  0.00  0.00    +0.000 N 
ATOM    110  HE  ARG C  11      52.193   1.428  -5.114  0.00  0.00    +0.000 HD
ATOM    111  CZ  ARG C  11      53.016  -0.331  -4.601  0.00  0.00    +0.000 C 
ATOM    112  NH1 ARG C  11      53.512  -1.080  -3.623  0.00  0.00    +0.000 N 
ATOM    113 HH11 ARG C  11      53.592  -0.685  -2.688  0.00  0.00    +0.000 HD
ATOM    114 HH12 ARG C  11      53.637  -2.068  -3.724  0.00  0.00    +0.000 HD
ATOM    115  NH2 ARG C  11      53.051  -0.784  -5.847  0.00  0.00    +0.000 N 
ATOM    116 HH21 ARG C  11      53.439  -1.692  -6.025  0.00  0.00    +0.000 HD
ATOM    117 HH22 ARG C  11      52.712  -0.220  -6.605  0.00  0.00    +0.000 HD
ATOM    118  N   TYR C  12      53.669   4.958   1.176  0.00  0.00    +0.000 N 
ATOM    119  H   TYR C  12      54.427   4.292   1.129  0.00  0.00    +0.000 HD
ATOM    120  CA  TYR C  12      53.780   5.959   2.238  0.00  0.00    +0.000 C 
ATOM    121  C   TYR C  12      52.596   5.830   3.240  0.00  0.00    +0.000 C 
ATOM    122  O   TYR C  12      51.974   6.829   3.617  0.00  0.00    +0.000 OA
ATOM    123  CB  TYR C  12      53.872   7.383   1.658  0.00  0.00    +0.000 C 
ATOM    124  CG  TYR C  12      55.096   7.560   0.770  0.00  0.00    +0.000 A 
ATOM    125  CD1 TYR C  12      56.364   7.747   1.320  0.00  0.00    +0.000 A 
ATOM    126  CD2 TYR C  12      54.988   7.530  -0.615  0.00  0.00    +0.000 A 
ATOM    127  CE1 TYR C  12      57.495   7.881   0.512  0.00  0.00    +0.000 A 
ATOM    128  CE2 TYR C  12      56.110   7.681  -1.434  0.00  0.00    +0.000 A 
ATOM    129  CZ  TYR C  12      57.362   7.860  -0.866  0.00  0.00    +0.000 A 
ATOM    130  OH  TYR C  12      58.473   8.030  -1.665  0.00  0.00    +0.000 OA
ATOM    131  HH  TYR C  12      59.216   8.369  -1.159  0.00  0.00    +0.000 HD
ATOM    132  N   ASP C  13      52.356   4.584   3.720  0.00  0.00    +0.000 N 
ATOM    133  H   ASP C  13      52.844   3.805   3.311  0.00  0.00    +0.000 HD
ATOM    134  CA  ASP C  13      51.375   4.282   4.758  0.00  0.00    +0.000 C 
ATOM    135  C   ASP C  13      52.115   3.855   6.012  0.00  0.00    +0.000 C 
ATOM    136  O   ASP C  13      52.574   2.709   6.111  0.00  0.00    +0.000 OA
ATOM    137  CB  ASP C  13      50.367   3.211   4.305  0.00  0.00    +0.000 C 
ATOM    138  CG  ASP C  13      49.124   3.072   5.181  0.00  0.00    +0.000 C 
ATOM    139  OD1 ASP C  13      48.847   4.004   5.980  0.00  0.00    +0.000 OA
ATOM    140  OD2 ASP C  13      48.360   2.100   4.976  0.00  0.00    +0.000 OA
ATOM    141  N   TRP C  14      52.304   4.805   6.934  0.00  0.00    +0.000 N 
ATOM    142  H   TRP C  14      51.751   5.652   6.837  0.00  0.00    +0.000 HD
ATOM    143  CA  TRP C  14      53.008   4.578   8.186  0.00  0.00    +0.000 C 
ATOM    144  C   TRP C  14      52.158   3.659   9.083  0.00  0.00    +0.000 C 
ATOM    145  O   TRP C  14      51.095   4.058   9.557  0.00  0.00    +0.000 OA
ATOM    146  CB  TRP C  14      53.328   5.922   8.866  0.00  0.00    +0.000 C 
ATOM    147  CG  TRP C  14      54.223   5.789  10.054  0.00  0.00    +0.000 A 
ATOM    148  CD1 TRP C  14      53.845   5.637  11.354  0.00  0.00    +0.000 A 
ATOM    149  CD2 TRP C  14      55.652   5.720  10.040  0.00  0.00    +0.000 A 
ATOM    150  NE1 TRP C  14      54.951   5.520  12.157  0.00  0.00    +0.000 N 
ATOM    151  HE1 TRP C  14      54.919   5.355  13.150  0.00  0.00    +0.000 HD
ATOM    152  CE2 TRP C  14      56.076   5.559  11.376  0.00  0.00    +0.000 A 
ATOM    153  CE3 TRP C  14      56.621   5.778   9.025  0.00  0.00    +0.000 A 
ATOM    154  CZ2 TRP C  14      57.425   5.456  11.725  0.00  0.00    +0.000 A 
ATOM    155  CZ3 TRP C  14      57.955   5.692   9.372  0.00  0.00    +0.000 A 
ATOM    156  CH2 TRP C  14      58.347   5.538  10.708  0.00  0.00    +0.000 A 
ATOM    157  N   LEU C  15      52.611   2.408   9.253  0.00  0.00    +0.000 N 
ATOM    158  H   LEU C  15      53.389   2.121   8.681  0.00  0.00    +0.000 HD
ATOM    159  CA  LEU C  15      51.919   1.372  10.034  0.00  0.00    +0.000 C 
ATOM    160  C   LEU C  15      52.682   1.052  11.346  0.00  0.00    +0.000 C 
ATOM    161  O   LEU C  15      52.712  -0.109  11.778  0.00  0.00    +0.000 OA
ATOM    162  CB  LEU C  15      51.779   0.086   9.170  0.00  0.00    +0.000 C 
ATOM    163  CG  LEU C  15      50.976   0.182   7.865  0.00  0.00    +0.000 C 
ATOM    164  CD1 LEU C  15      51.194  -1.037   6.998  0.00  0.00    +0.000 C 
ATOM    165  CD2 LEU C  15      49.488   0.398   8.132  0.00  0.00    +0.000 C 
ATOM    166  N   NME C  16      53.282   2.086  11.984  0.00  0.00    +0.000 N 
ATOM    167  H   NME C  16      53.202   3.000  11.564  0.00  0.00    +0.000 HD
ATOM    168  C   NME C  16      54.075   1.915  13.204  0.00  0.00    +0.000 C 
TER 
REMARK  Name = /home/xianyang/aimnet2_score_pipelines/work/L1234-fixed-receptor-eint-20260921/L4/P50052/prepared.pdb
REMARK                            x       y       z     vdW  Elec       q    Type
REMARK                         _______ _______ _______ _____ _____    ______ ____
ATOM      1  CH3 ACE D   1      54.924   7.922  18.339  0.00  0.00    +0.000 C 
ATOM      2  C   ACE D   1      56.266   7.564  17.664  0.00  0.00    +0.000 C 
ATOM      3  O   ACE D   1      57.213   8.343  17.769  0.00  0.00    +0.000 OA
ATOM      4  N   MET D   2      56.316   6.449  16.906  0.00  0.00    +0.000 N 
ATOM      5  H   MET D   2      55.511   5.841  16.898  0.00  0.00    +0.000 HD
ATOM      6  CA  MET D   2      57.534   6.018  16.219  0.00  0.00    +0.000 C 
ATOM      7  C   MET D   2      57.836   6.909  15.001  0.00  0.00    +0.000 C 
ATOM      8  O   MET D   2      58.961   6.881  14.500  0.00  0.00    +0.000 OA
ATOM      9  CB  MET D   2      57.451   4.555  15.787  0.00  0.00    +0.000 C 
ATOM     10  CG  MET D   2      57.367   3.618  16.954  0.00  0.00    +0.000 C 
ATOM     11  SD  MET D   2      57.485   1.879  16.503  0.00  0.00    +0.000 S 
ATOM     12  CE  MET D   2      57.022   1.134  18.126  0.00  0.00    +0.000 C 
ATOM     13  N   CYS D   3      56.862   7.726  14.555  0.00  0.00    +0.000 N 
ATOM     14  H   CYS D   3      55.967   7.699  15.014  0.00  0.00    +0.000 HD
ATOM     15  CA  CYS D   3      57.068   8.706  13.483  0.00  0.00    +0.000 C 
ATOM     16  C   CYS D   3      58.010   9.804  14.002  0.00  0.00    +0.000 C 
ATOM     17  O   CYS D   3      58.948  10.182  13.297  0.00  0.00    +0.000 OA
ATOM     18  CB  CYS D   3      55.734   9.267  12.995  0.00  0.00    +0.000 C 
ATOM     19  SG  CYS D   3      55.867  10.607  11.774  0.00  0.00    +0.000 S 
ATOM     20  N   LYS D   4      57.811  10.240  15.269  0.00  0.00    +0.000 N 
ATOM     21  H   LYS D   4      57.042   9.856  15.797  0.00  0.00    +0.000 HD
ATOM     22  CA  LYS D   4      58.680  11.212  15.930  0.00  0.00    +0.000 C 
ATOM     23  C   LYS D   4      59.990  10.592  16.363  0.00  0.00    +0.000 C 
ATOM     24  O   LYS D   4      61.032  11.208  16.169  0.00  0.00    +0.000 OA
ATOM     25  CB  LYS D   4      58.015  11.841  17.164  0.00  0.00    +0.000 C 
ATOM     26  CG  LYS D   4      56.892  12.782  16.858  0.00  0.00    +0.000 C 
ATOM     27  CD  LYS D   4      56.433  13.511  18.101  0.00  0.00    +0.000 C 
ATOM     28  CE  LYS D   4      55.383  14.545  17.789  0.00  0.00    +0.000 C 
ATOM     29  NZ  LYS D   4      55.892  15.604  16.881  0.00  0.00    +0.000 N 
ATOM     30  HZ1 LYS D   4      55.250  16.380  16.783  0.00  0.00    +0.000 HD
ATOM     31  HZ2 LYS D   4      56.797  15.945  17.199  0.00  0.00    +0.000 HD
ATOM     32  HZ3 LYS D   4      56.035  15.200  15.954  0.00  0.00    +0.000 HD
ATOM     33  N   VAL D   5      59.936   9.397  17.003  0.00  0.00    +0.000 N 
ATOM     34  H   VAL D   5      59.018   9.010  17.190  0.00  0.00    +0.000 HD
ATOM     35  CA  VAL D   5      61.102   8.730  17.586  0.00  0.00    +0.000 C 
ATOM     36  C   VAL D   5      62.096   8.329  16.468  0.00  0.00    +0.000 C 
ATOM     37  O   VAL D   5      63.228   8.807  16.506  0.00  0.00    +0.000 OA
ATOM     38  CB  VAL D   5      60.714   7.507  18.459  0.00  0.00    +0.000 C 
ATOM     39  CG1 VAL D   5      61.952   6.757  18.946  0.00  0.00    +0.000 C 
ATOM     40  CG2 VAL D   5      59.862   7.939  19.645  0.00  0.00    +0.000 C 
ATOM     41  N   PHE D   6      61.690   7.485  15.489  0.00  0.00    +0.000 N 
ATOM     42  H   PHE D   6      60.734   7.151  15.463  0.00  0.00    +0.000 HD
ATOM     43  CA  PHE D   6      62.612   7.050  14.428  0.00  0.00    +0.000 C 
ATOM     44  C   PHE D   6      62.935   8.196  13.463  0.00  0.00    +0.000 C 
ATOM     45  O   PHE D   6      64.029   8.204  12.898  0.00  0.00    +0.000 OA
ATOM     46  CB  PHE D   6      62.088   5.849  13.642  0.00  0.00    +0.000 C 
ATOM     47  CG  PHE D   6      62.063   4.591  14.476  0.00  0.00    +0.000 A 
ATOM     48  CD1 PHE D   6      63.238   3.918  14.785  0.00  0.00    +0.000 A 
ATOM     49  CD2 PHE D   6      60.862   4.044  14.902  0.00  0.00    +0.000 A 
ATOM     50  CE1 PHE D   6      63.219   2.765  15.571  0.00  0.00    +0.000 A 
ATOM     51  CE2 PHE D   6      60.842   2.876  15.672  0.00  0.00    +0.000 A 
ATOM     52  CZ  PHE D   6      62.023   2.242  15.998  0.00  0.00    +0.000 A 
ATOM     53  N   GLY D   7      62.032   9.166  13.336  0.00  0.00    +0.000 N 
ATOM     54  H   GLY D   7      61.134   9.067  13.788  0.00  0.00    +0.000 HD
ATOM     55  CA  GLY D   7      62.271  10.360  12.535  0.00  0.00    +0.000 C 
ATOM     56  C   GLY D   7      63.440  11.148  13.098  0.00  0.00    +0.000 C 
ATOM     57  O   GLY D   7      64.325  11.576  12.353  0.00  0.00    +0.000 OA
ATOM     58  N   SER D   8      63.472  11.285  14.439  0.00  0.00    +0.000 N 
ATOM     59  H   SER D   8      62.653  11.005  14.970  0.00  0.00    +0.000 HD
ATOM     60  CA  SER D   8      64.527  11.961  15.190  0.00  0.00    +0.000 C 
ATOM     61  C   SER D   8      65.792  11.132  15.241  0.00  0.00    +0.000 C 
ATOM     62  O   SER D   8      66.883  11.689  15.142  0.00  0.00    +0.000 OA
ATOM     63  CB  SER D   8      64.061  12.248  16.609  0.00  0.00    +0.000 C 
ATOM     64  OG  SER D   8      62.893  13.045  16.590  0.00  0.00    +0.000 OA
ATOM     65  HG  SER D   8      62.572  13.129  17.493  0.00  0.00    +0.000 HD
ATOM     66  N   PHE D   9      65.649   9.799  15.431  0.00  0.00    +0.000 N 
ATOM     67  H   PHE D   9      64.711   9.444  15.588  0.00  0.00    +0.000 HD
ATOM     68  CA  PHE D   9      66.758   8.848  15.521  0.00  0.00    +0.000 C 
ATOM     69  C   PHE D   9      67.550   8.844  14.208  0.00  0.00    +0.000 C 
ATOM     70  O   PHE D   9      68.777   8.729  14.231  0.00  0.00    +0.000 OA
ATOM     71  CB  PHE D   9      66.232   7.447  15.855  0.00  0.00    +0.000 C 
ATOM     72  CG  PHE D   9      67.283   6.391  16.108  0.00  0.00    +0.000 A 
ATOM     73  CD1 PHE D   9      67.860   6.249  17.365  0.00  0.00    +0.000 A 
ATOM     74  CD2 PHE D   9      67.623   5.476  15.119  0.00  0.00    +0.000 A 
ATOM     75  CE1 PHE D   9      68.801   5.248  17.612  0.00  0.00    +0.000 A 
ATOM     76  CE2 PHE D   9      68.555   4.466  15.370  0.00  0.00    +0.000 A 
ATOM     77  CZ  PHE D   9      69.142   4.361  16.614  0.00  0.00    +0.000 A 
ATOM     78  N   LEU D  10      66.843   9.010  13.073  0.00  0.00    +0.000 N 
ATOM     79  H   LEU D  10      65.830   8.999  13.139  0.00  0.00    +0.000 HD
ATOM     80  CA  LEU D  10      67.424   9.114  11.739  0.00  0.00    +0.000 C 
ATOM     81  C   LEU D  10      68.303  10.353  11.631  0.00  0.00    +0.000 C 
ATOM     82  O   LEU D  10      69.458  10.246  11.221  0.00  0.00    +0.000 OA
ATOM     83  CB  LEU D  10      66.297   9.166  10.686  0.00  0.00    +0.000 C 
ATOM     84  CG  LEU D  10      66.669   9.583   9.261  0.00  0.00    +0.000 C 
ATOM     85  CD1 LEU D  10      67.517   8.526   8.564  0.00  0.00    +0.000 C 
ATOM     86  CD2 LEU D  10      65.430   9.870   8.464  0.00  0.00    +0.000 C 
ATOM     87  N   THR D  11      67.755  11.521  12.011  0.00  0.00    +0.000 N 
ATOM     88  H   THR D  11      66.805  11.486  12.353  0.00  0.00    +0.000 HD
ATOM     89  CA  THR D  11      68.406  12.822  11.917  0.00  0.00    +0.000 C 
ATOM     90  C   THR D  11      69.564  12.904  12.927  0.00  0.00    +0.000 C 
ATOM     91  O   THR D  11      70.615  13.455  12.600  0.00  0.00    +0.000 OA
ATOM     92  CB  THR D  11      67.364  13.913  12.150  0.00  0.00    +0.000 C 
ATOM     93  OG1 THR D  11      66.251  13.661  11.297  0.00  0.00    +0.000 OA
ATOM     94  HG1 THR D  11      65.711  12.939  11.648  0.00  0.00    +0.000 HD
ATOM     95  CG2 THR D  11      67.898  15.299  11.879  0.00  0.00    +0.000 C 
ATOM     96  N   LEU D  12      69.387  12.322  14.125  0.00  0.00    +0.000 N 
ATOM     97  H   LEU D  12      68.481  11.915  14.331  0.00  0.00    +0.000 HD
ATOM     98  CA  LEU D  12      70.391  12.295  15.196  0.00  0.00    +0.000 C 
ATOM     99  C   LEU D  12      71.672  11.618  14.701  0.00  0.00    +0.000 C 
ATOM    100  O   LEU D  12      72.737  12.233  14.740  0.00  0.00    +0.000 OA
ATOM    101  CB  LEU D  12      69.815  11.554  16.434  0.00  0.00    +0.000 C 
ATOM    102  CG  LEU D  12      70.574  11.603  17.768  0.00  0.00    +0.000 C 
ATOM    103  CD1 LEU D  12      69.719  11.095  18.877  0.00  0.00    +0.000 C 
ATOM    104  CD2 LEU D  12      71.840  10.807  17.737  0.00  0.00    +0.000 C 
ATOM    105  N   ASN D  13      71.559  10.363  14.223  0.00  0.00    +0.000 N 
ATOM    106  H   ASN D  13      70.639   9.939  14.218  0.00  0.00    +0.000 HD
ATOM    107  CA  ASN D  13      72.692   9.569  13.752  0.00  0.00    +0.000 C 
ATOM    108  C   ASN D  13      73.201  10.070  12.390  0.00  0.00    +0.000 C 
ATOM    109  O   ASN D  13      74.374   9.853  12.092  0.00  0.00    +0.000 OA
ATOM    110  CB  ASN D  13      72.314   8.099  13.666  0.00  0.00    +0.000 C 
ATOM    111  CG  ASN D  13      72.027   7.503  15.022  0.00  0.00    +0.000 C 
ATOM    112  OD1 ASN D  13      72.873   7.486  15.922  0.00  0.00    +0.000 OA
ATOM    113  ND2 ASN D  13      70.840   6.967  15.185  0.00  0.00    +0.000 N 
ATOM    114 HD21 ASN D  13      70.067   7.276  14.609  0.00  0.00    +0.000 HD
ATOM    115 HD22 ASN D  13      70.667   6.475  16.044  0.00  0.00    +0.000 HD
ATOM    116  N   MET D  14      72.354  10.755  11.581  0.00  0.00    +0.000 N 
ATOM    117  H   MET D  14      71.374  10.827  11.828  0.00  0.00    +0.000 HD
ATOM    118  CA  MET D  14      72.808  11.337  10.311  0.00  0.00    +0.000 C 
ATOM    119  C   MET D  14      73.807  12.455  10.585  0.00  0.00    +0.000 C 
ATOM    120  O   MET D  14      74.886  12.468   9.994  0.00  0.00    +0.000 OA
ATOM    121  CB  MET D  14      71.646  11.865   9.461  0.00  0.00    +0.000 C 
ATOM    122  CG  MET D  14      72.121  12.472   8.149  0.00  0.00    +0.000 C 
ATOM    123  SD  MET D  14      70.902  13.458   7.264  0.00  0.00    +0.000 S 
ATOM    124  CE  MET D  14      70.699  14.816   8.380  0.00  0.00    +0.000 C 
ATOM    125  N   PHE D  15      73.443  13.389  11.495  0.00  0.00    +0.000 N 
ATOM    126  H   PHE D  15      72.527  13.325  11.927  0.00  0.00    +0.000 HD
ATOM    127  CA  PHE D  15      74.313  14.491  11.879  0.00  0.00    +0.000 C 
ATOM    128  C   PHE D  15      75.493  13.981  12.698  0.00  0.00    +0.000 C 
ATOM    129  O   PHE D  15      76.593  14.491  12.513  0.00  0.00    +0.000 OA
ATOM    130  CB  PHE D  15      73.567  15.584  12.650  0.00  0.00    +0.000 C 
ATOM    131  CG  PHE D  15      72.749  16.482  11.757  0.00  0.00    +0.000 A 
ATOM    132  CD1 PHE D  15      73.369  17.400  10.910  0.00  0.00    +0.000 A 
ATOM    133  CD2 PHE D  15      71.368  16.497  11.841  0.00  0.00    +0.000 A 
ATOM    134  CE1 PHE D  15      72.617  18.240  10.093  0.00  0.00    +0.000 A 
ATOM    135  CE2 PHE D  15      70.618  17.362  11.047  0.00  0.00    +0.000 A 
ATOM    136  CZ  PHE D  15      71.247  18.224  10.176  0.00  0.00    +0.000 A 
ATOM    137  N   ALA D  16      75.298  12.945  13.545  0.00  0.00    +0.000 N 
ATOM    138  H   ALA D  16      74.359  12.607  13.715  0.00  0.00    +0.000 HD
ATOM    139  CA  ALA D  16      76.404  12.377  14.313  0.00  0.00    +0.000 C 
ATOM    140  C   ALA D  16      77.460  11.800  13.365  0.00  0.00    +0.000 C 
ATOM    141  O   ALA D  16      78.648  11.947  13.625  0.00  0.00    +0.000 OA
ATOM    142  CB  ALA D  16      75.903  11.319  15.269  0.00  0.00    +0.000 C 
ATOM    143  N   NME D  17      77.028  11.241  12.216  0.00  0.00    +0.000 N 
ATOM    144  H   NME D  17      76.030  11.168  12.059  0.00  0.00    +0.000 HD
ATOM    145  C   NME D  17      77.929  10.719  11.183  0.00  0.00    +0.000 C 
ATOM    146  CH3 ACE F   1      48.371   7.849   7.003  0.00  0.00    +0.000 C 
ATOM    147  C   ACE F   1      49.862   7.982   6.812  0.00  0.00    +0.000 C 
ATOM    148  O   ACE F   1      50.593   6.999   6.961  0.00  0.00    +0.000 OA
ATOM    149  N   ALA F   2      50.316   9.188   6.432  0.00  0.00    +0.000 N 
ATOM    150  H   ALA F   2      49.664   9.948   6.346  0.00  0.00    +0.000 HD
ATOM    151  CA  ALA F   2      51.722   9.445   6.150  0.00  0.00    +0.000 C 
ATOM    152  C   ALA F   2      52.418  10.142   7.319  0.00  0.00    +0.000 C 
ATOM    153  O   ALA F   2      51.826  11.001   7.976  0.00  0.00    +0.000 OA
ATOM    154  CB  ALA F   2      51.848  10.293   4.900  0.00  0.00    +0.000 C 
ATOM    155  N   CYS F   3      53.686   9.751   7.566  0.00  0.00    +0.000 N 
ATOM    156  H   CYS F   3      54.089   9.081   6.923  0.00  0.00    +0.000 HD
ATOM    157  CA  CYS F   3      54.579  10.324   8.576  0.00  0.00    +0.000 C 
ATOM    158  C   CYS F   3      55.207  11.575   7.971  0.00  0.00    +0.000 C 
ATOM    159  O   CYS F   3      56.287  11.506   7.379  0.00  0.00    +0.000 OA
ATOM    160  CB  CYS F   3      55.616   9.286   9.017  0.00  0.00    +0.000 C 
ATOM    161  SG  CYS F   3      56.879   9.895  10.170  0.00  0.00    +0.000 S 
ATOM    162  N   ILE F   4      54.463  12.697   8.008  0.00  0.00    +0.000 N 
ATOM    163  H   ILE F   4      53.615  12.697   8.573  0.00  0.00    +0.000 HD
ATOM    164  CA  ILE F   4      54.877  13.947   7.367  0.00  0.00    +0.000 C 
ATOM    165  C   ILE F   4      55.510  14.913   8.374  0.00  0.00    +0.000 C 
ATOM    166  O   ILE F   4      55.591  14.630   9.569  0.00  0.00    +0.000 OA
ATOM    167  CB  ILE F   4      53.682  14.658   6.648  0.00  0.00    +0.000 C 
ATOM    168  CG1 ILE F   4      52.621  15.174   7.656  0.00  0.00    +0.000 C 
ATOM    169  CG2 ILE F   4      53.069  13.760   5.557  0.00  0.00    +0.000 C 
ATOM    170  CD1 ILE F   4      51.630  16.149   7.081  0.00  0.00    +0.000 C 
ATOM    171  N   MET F   5      55.923  16.077   7.860  0.00  0.00    +0.000 N 
ATOM    172  H   MET F   5      55.746  16.247   6.882  0.00  0.00    +0.000 HD
ATOM    173  CA  MET F   5      56.478  17.182   8.617  0.00  0.00    +0.000 C 
ATOM    174  C   MET F   5      55.322  18.131   8.883  0.00  0.00    +0.000 C 
ATOM    175  O   MET F   5      55.023  19.000   8.056  0.00  0.00    +0.000 OA
ATOM    176  CB  MET F   5      57.646  17.810   7.819  0.00  0.00    +0.000 C 
ATOM    177  CG  MET F   5      58.682  18.485   8.668  0.00  0.00    +0.000 C 
ATOM    178  SD  MET F   5      59.685  17.337   9.636  0.00  0.00    +0.000 S 
ATOM    179  CE  MET F   5      60.690  18.489  10.515  0.00  0.00    +0.000 C 
ATOM    180  N   ALA F   6      54.563  17.853   9.957  0.00  0.00    +0.000 N 
ATOM    181  H   ALA F   6      54.877  17.146  10.614  0.00  0.00    +0.000 HD
ATOM    182  CA  ALA F   6      53.336  18.573  10.318  0.00  0.00    +0.000 C 
ATOM    183  C   ALA F   6      53.638  20.019  10.838  0.00  0.00    +0.000 C 
ATOM    184  O   ALA F   6      53.466  20.305  12.028  0.00  0.00    +0.000 OA
ATOM    185  CB  ALA F   6      52.565  17.781  11.374  0.00  0.00    +0.000 C 
ATOM    186  N   NME F   7      54.057  20.927   9.919  0.00  0.00    +0.000 N 
ATOM    187  H   NME F   7      54.227  20.583   8.980  0.00  0.00    +0.000 HD
ATOM    188  C   NME F   7      54.359  22.340  10.222  0.00  0.00    +0.000 C 
TER 
REMARK  Name = /home/xianyang/aimnet2_score_pipelines/work/L1234-fixed-receptor-eint-20260921/L4/P50052/prepared.pdb
REMARK                            x       y       z     vdW  Elec       q    Type
REMARK                         _______ _______ _______ _____ _____    ______ ____
ATOM      1  CH3 ACE E   1      70.689  15.898  19.301  0.00  0.00    +0.000 C 
ATOM      2  C   ACE E   1      69.869  17.195  19.184  0.00  0.00    +0.000 C 
ATOM      3  O   ACE E   1      68.651  17.123  19.044  0.00  0.00    +0.000 OA
ATOM      4  N   LEU E   2      70.529  18.366  19.245  0.00  0.00    +0.000 N 
ATOM      5  H   LEU E   2      71.522  18.335  19.418  0.00  0.00    +0.000 HD
ATOM      6  CA  LEU E   2      69.883  19.682  19.138  0.00  0.00    +0.000 C 
ATOM      7  C   LEU E   2      69.438  19.971  17.699  0.00  0.00    +0.000 C 
ATOM      8  O   LEU E   2      68.433  20.654  17.499  0.00  0.00    +0.000 OA
ATOM      9  CB  LEU E   2      70.826  20.806  19.619  0.00  0.00    +0.000 C 
ATOM     10  CG  LEU E   2      71.323  20.742  21.067  0.00  0.00    +0.000 C 
ATOM     11  CD1 LEU E   2      72.338  21.826  21.336  0.00  0.00    +0.000 C 
ATOM     12  CD2 LEU E   2      70.176  20.823  22.068  0.00  0.00    +0.000 C 
ATOM     13  N   SER E   3      70.195  19.466  16.702  0.00  0.00    +0.000 N 
ATOM     14  H   SER E   3      71.064  19.017  16.947  0.00  0.00    +0.000 HD
ATOM     15  CA  SER E   3      69.905  19.654  15.277  0.00  0.00    +0.000 C 
ATOM     16  C   SER E   3      68.731  18.785  14.828  0.00  0.00    +0.000 C 
ATOM     17  O   SER E   3      68.127  19.060  13.787  0.00  0.00    +0.000 OA
ATOM     18  CB  SER E   3      71.134  19.323  14.440  0.00  0.00    +0.000 C 
ATOM     19  OG  SER E   3      72.232  20.152  14.780  0.00  0.00    +0.000 OA
ATOM     20  HG  SER E   3      72.145  21.001  14.338  0.00  0.00    +0.000 HD
ATOM     21  N   SER E   4      68.419  17.732  15.613  0.00  0.00    +0.000 N 
ATOM     22  H   SER E   4      68.976  17.572  16.441  0.00  0.00    +0.000 HD
ATOM     23  CA  SER E   4      67.350  16.779  15.329  0.00  0.00    +0.000 C 
ATOM     24  C   SER E   4      66.056  17.114  16.111  0.00  0.00    +0.000 C 
ATOM     25  O   SER E   4      65.068  16.388  15.963  0.00  0.00    +0.000 OA
ATOM     26  CB  SER E   4      67.801  15.359  15.663  0.00  0.00    +0.000 C 
ATOM     27  OG  SER E   4      68.100  15.221  17.041  0.00  0.00    +0.000 OA
ATOM     28  HG  SER E   4      67.651  15.871  17.597  0.00  0.00    +0.000 HD
ATOM     29  N   LEU E   5      66.049  18.217  16.917  0.00  0.00    +0.000 N 
ATOM     30  H   LEU E   5      66.895  18.765  16.999  0.00  0.00    +0.000 HD
ATOM     31  CA  LEU E   5      64.865  18.663  17.684  0.00  0.00    +0.000 C 
ATOM     32  C   LEU E   5      63.728  19.153  16.739  0.00  0.00    +0.000 C 
ATOM     33  O   LEU E   5      62.588  18.745  16.979  0.00  0.00    +0.000 OA
ATOM     34  CB  LEU E   5      65.198  19.767  18.705  0.00  0.00    +0.000 C 
ATOM     35  CG  LEU E   5      66.002  19.339  19.931  0.00  0.00    +0.000 C 
ATOM     36  CD1 LEU E   5      66.437  20.536  20.737  0.00  0.00    +0.000 C 
ATOM     37  CD2 LEU E   5      65.208  18.369  20.808  0.00  0.00    +0.000 C 
ATOM     38  N   PRO E   6      63.974  19.949  15.648  0.00  0.00    +0.000 N 
ATOM     39  CA  PRO E   6      62.852  20.336  14.762  0.00  0.00    +0.000 C 
ATOM     40  C   PRO E   6      62.139  19.114  14.149  0.00  0.00    +0.000 C 
ATOM     41  O   PRO E   6      60.944  19.188  13.886  0.00  0.00    +0.000 OA
ATOM     42  CB  PRO E   6      63.531  21.175  13.675  0.00  0.00    +0.000 C 
ATOM     43  CG  PRO E   6      64.787  21.671  14.307  0.00  0.00    +0.000 C 
ATOM     44  CD  PRO E   6      65.244  20.549  15.180  0.00  0.00    +0.000 C 
ATOM     45  N   THR E   7      62.862  17.983  13.966  0.00  0.00    +0.000 N 
ATOM     46  H   THR E   7      63.823  17.989  14.267  0.00  0.00    +0.000 HD
ATOM     47  CA  THR E   7      62.301  16.730  13.454  0.00  0.00    +0.000 C 
ATOM     48  C   THR E   7      61.342  16.148  14.478  0.00  0.00    +0.000 C 
ATOM     49  O   THR E   7      60.225  15.793  14.129  0.00  0.00    +0.000 OA
ATOM     50  CB  THR E   7      63.412  15.734  13.111  0.00  0.00    +0.000 C 
ATOM     51  OG1 THR E   7      64.381  16.350  12.272  0.00  0.00    +0.000 OA
ATOM     52  HG1 THR E   7      64.950  16.910  12.808  0.00  0.00    +0.000 HD
ATOM     53  CG2 THR E   7      62.886  14.484  12.469  0.00  0.00    +0.000 C 
ATOM     54  N   PHE E   8      61.768  16.073  15.750  0.00  0.00    +0.000 N 
ATOM     55  H   PHE E   8      62.715  16.357  15.966  0.00  0.00    +0.000 HD
ATOM     56  CA  PHE E   8      60.950  15.541  16.839  0.00  0.00    +0.000 C 
ATOM     57  C   PHE E   8      59.712  16.393  17.075  0.00  0.00    +0.000 C 
ATOM     58  O   PHE E   8      58.674  15.869  17.480  0.00  0.00    +0.000 OA
ATOM     59  CB  PHE E   8      61.780  15.470  18.133  0.00  0.00    +0.000 C 
ATOM     60  CG  PHE E   8      61.036  14.911  19.322  0.00  0.00    +0.000 A 
ATOM     61  CD1 PHE E   8      60.875  13.538  19.480  0.00  0.00    +0.000 A 
ATOM     62  CD2 PHE E   8      60.539  15.753  20.310  0.00  0.00    +0.000 A 
ATOM     63  CE1 PHE E   8      60.189  13.020  20.581  0.00  0.00    +0.000 A 
ATOM     64  CE2 PHE E   8      59.848  15.234  21.409  0.00  0.00    +0.000 A 
ATOM     65  CZ  PHE E   8      59.684  13.871  21.539  0.00  0.00    +0.000 A 
ATOM     66  N   TYR E   9      59.837  17.706  16.836  0.00  0.00    +0.000 N 
ATOM     67  H   TYR E   9      60.759  18.048  16.587  0.00  0.00    +0.000 HD
ATOM     68  CA  TYR E   9      58.804  18.691  17.098  0.00  0.00    +0.000 C 
ATOM     69  C   TYR E   9      57.742  18.699  15.989  0.00  0.00    +0.000 C 
ATOM     70  O   TYR E   9      56.556  18.820  16.307  0.00  0.00    +0.000 OA
ATOM     71  CB  TYR E   9      59.450  20.086  17.230  0.00  0.00    +0.000 C 
ATOM     72  CG  TYR E   9      58.577  21.109  17.918  0.00  0.00    +0.000 A 
ATOM     73  CD1 TYR E   9      58.544  21.205  19.308  0.00  0.00    +0.000 A 
ATOM     74  CD2 TYR E   9      57.822  22.019  17.184  0.00  0.00    +0.000 A 
ATOM     75  CE1 TYR E   9      57.739  22.147  19.951  0.00  0.00    +0.000 A 
ATOM     76  CE2 TYR E   9      57.009  22.965  17.816  0.00  0.00    +0.000 A 
ATOM     77  CZ  TYR E   9      56.974  23.028  19.201  0.00  0.00    +0.000 A 
ATOM     78  OH  TYR E   9      56.176  23.956  19.833  0.00  0.00    +0.000 OA
ATOM     79  HH  TYR E   9      55.748  24.545  19.211  0.00  0.00    +0.000 HD
ATOM     80  N   PHE E  10      58.136  18.551  14.704  0.00  0.00    +0.000 N 
ATOM     81  H   PHE E  10      59.125  18.551  14.477  0.00  0.00    +0.000 HD
ATOM     82  CA  PHE E  10      57.147  18.652  13.630  0.00  0.00    +0.000 C 
ATOM     83  C   PHE E  10      56.811  17.274  12.967  0.00  0.00    +0.000 C 
ATOM     84  O   PHE E  10      55.709  17.175  12.413  0.00  0.00    +0.000 OA
ATOM     85  CB  PHE E  10      57.608  19.636  12.538  0.00  0.00    +0.000 C 
ATOM     86  CG  PHE E  10      57.774  21.054  13.049  0.00  0.00    +0.000 A 
ATOM     87  CD1 PHE E  10      56.666  21.854  13.303  0.00  0.00    +0.000 A 
ATOM     88  CD2 PHE E  10      59.037  21.603  13.229  0.00  0.00    +0.000 A 
ATOM     89  CE1 PHE E  10      56.819  23.153  13.792  0.00  0.00    +0.000 A 
ATOM     90  CE2 PHE E  10      59.189  22.906  13.707  0.00  0.00    +0.000 A 
ATOM     91  CZ  PHE E  10      58.079  23.675  13.980  0.00  0.00    +0.000 A 
ATOM     92  N   ARG E  11      57.689  16.225  13.036  0.00  0.00    +0.000 N 
ATOM     93  H   ARG E  11      58.572  16.325  13.526  0.00  0.00    +0.000 HD
ATOM     94  CA  ARG E  11      57.327  14.909  12.451  0.00  0.00    +0.000 C 
ATOM     95  C   ARG E  11      56.119  14.303  13.169  0.00  0.00    +0.000 C 
ATOM     96  O   ARG E  11      56.145  14.153  14.391  0.00  0.00    +0.000 OA
ATOM     97  CB  ARG E  11      58.488  13.889  12.470  0.00  0.00    +0.000 C 
ATOM     98  CG  ARG E  11      59.494  14.026  11.330  0.00  0.00    +0.000 C 
ATOM     99  CD  ARG E  11      58.895  13.623   9.999  0.00  0.00    +0.000 C 
ATOM    100  NE  ARG E  11      59.822  13.838   8.896  0.00  0.00    +0.000 N 
ATOM    101  HE  ARG E  11      60.764  14.099   9.128  0.00  0.00    +0.000 HD
ATOM    102  CZ  ARG E  11      59.487  13.710   7.619  0.00  0.00    +0.000 C 
ATOM    103  NH1 ARG E  11      58.245  13.398   7.280  0.00  0.00    +0.000 N 
ATOM    104 HH11 ARG E  11      58.020  13.134   6.341  0.00  0.00    +0.000 HD
ATOM    105 HH12 ARG E  11      57.621  13.055   7.999  0.00  0.00    +0.000 HD
ATOM    106  NH2 ARG E  11      60.379  13.936   6.669  0.00  0.00    +0.000 N 
ATOM    107 HH21 ARG E  11      61.323  14.146   6.934  0.00  0.00    +0.000 HD
ATOM    108 HH22 ARG E  11      60.121  13.804   5.709  0.00  0.00    +0.000 HD
ATOM    109  N   ASP E  12      55.040  14.005  12.414  0.00  0.00    +0.000 N 
ATOM    110  H   ASP E  12      55.048  14.193  11.416  0.00  0.00    +0.000 HD
ATOM    111  CA  ASP E  12      53.822  13.422  12.983  0.00  0.00    +0.000 C 
ATOM    112  C   ASP E  12      52.993  12.756  11.881  0.00  0.00    +0.000 C 
ATOM    113  O   ASP E  12      53.123  13.125  10.709  0.00  0.00    +0.000 OA
ATOM    114  CB  ASP E  12      52.996  14.503  13.713  0.00  0.00    +0.000 C 
ATOM    115  CG  ASP E  12      51.887  13.974  14.602  0.00  0.00    +0.000 C 
ATOM    116  OD1 ASP E  12      52.102  12.926  15.263  0.00  0.00    +0.000 OA
ATOM    117  OD2 ASP E  12      50.861  14.675  14.745  0.00  0.00    +0.000 OA
ATOM    118  N   NME E  13      52.165  11.757  12.252  0.00  0.00    +0.000 N 
ATOM    119  H   NME E  13      52.039  11.610  13.248  0.00  0.00    +0.000 HD
ATOM    120  C   NME E  13      51.295  11.037  11.318  0.00  0.00    +0.000 C 
TER 
REMARK  Name = /home/xianyang/aimnet2_score_pipelines/work/L1234-fixed-receptor-eint-20260921/L4/P50052/prepared.pdb
REMARK                            x       y       z     vdW  Elec       q    Type
REMARK                         _______ _______ _______ _____ _____    ______ ____
ATOM      1  CH3 ACE G   1      61.556  26.605   2.694  0.00  0.00    +0.000 C 
ATOM      2  C   ACE G   1      62.668  26.817   3.711  0.00  0.00    +0.000 C 
ATOM      3  O   ACE G   1      63.824  26.578   3.393  0.00  0.00    +0.000 OA
ATOM      4  N   GLY G   2      62.299  27.204   4.932  0.00  0.00    +0.000 N 
ATOM      5  H   GLY G   2      61.323  27.412   5.078  0.00  0.00    +0.000 HD
ATOM      6  CA  GLY G   2      63.226  27.459   6.030  0.00  0.00    +0.000 C 
ATOM      7  C   GLY G   2      63.994  26.243   6.504  0.00  0.00    +0.000 C 
ATOM      8  O   GLY G   2      65.219  26.312   6.653  0.00  0.00    +0.000 OA
ATOM      9  N   ILE G   3      63.277  25.119   6.747  0.00  0.00    +0.000 N 
ATOM     10  H   ILE G   3      62.275  25.169   6.649  0.00  0.00    +0.000 HD
ATOM     11  CA  ILE G   3      63.875  23.864   7.220  0.00  0.00    +0.000 C 
ATOM     12  C   ILE G   3      64.738  23.263   6.089  0.00  0.00    +0.000 C 
ATOM     13  O   ILE G   3      65.772  22.679   6.399  0.00  0.00    +0.000 OA
ATOM     14  CB  ILE G   3      62.801  22.859   7.738  0.00  0.00    +0.000 C 
ATOM     15  CG1 ILE G   3      62.063  23.419   8.993  0.00  0.00    +0.000 C 
ATOM     16  CG2 ILE G   3      63.387  21.484   8.048  0.00  0.00    +0.000 C 
ATOM     17  CD1 ILE G   3      62.927  23.733  10.301  0.00  0.00    +0.000 C 
ATOM     18  N   ALA G   4      64.371  23.476   4.799  0.00  0.00    +0.000 N 
ATOM     19  H   ALA G   4      63.576  24.066   4.611  0.00  0.00    +0.000 HD
ATOM     20  CA  ALA G   4      65.162  22.991   3.656  0.00  0.00    +0.000 C 
ATOM     21  C   ALA G   4      66.529  23.687   3.605  0.00  0.00    +0.000 C 
ATOM     22  O   ALA G   4      67.531  23.026   3.336  0.00  0.00    +0.000 OA
ATOM     23  CB  ALA G   4      64.413  23.211   2.357  0.00  0.00    +0.000 C 
ATOM     24  N   LEU G   5      66.573  25.010   3.907  0.00  0.00    +0.000 N 
ATOM     25  H   LEU G   5      65.700  25.509   4.033  0.00  0.00    +0.000 HD
ATOM     26  CA  LEU G   5      67.814  25.784   3.974  0.00  0.00    +0.000 C 
ATOM     27  C   LEU G   5      68.689  25.310   5.146  0.00  0.00    +0.000 C 
ATOM     28  O   LEU G   5      69.909  25.283   5.005  0.00  0.00    +0.000 OA
ATOM     29  CB  LEU G   5      67.542  27.300   4.098  0.00  0.00    +0.000 C 
ATOM     30  CG  LEU G   5      67.454  28.173   2.803  0.00  0.00    +0.000 C 
ATOM     31  CD1 LEU G   5      68.784  28.202   2.044  0.00  0.00    +0.000 C 
ATOM     32  CD2 LEU G   5      66.354  27.754   1.892  0.00  0.00    +0.000 C 
ATOM     33  N   MET G   6      68.070  24.914   6.284  0.00  0.00    +0.000 N 
ATOM     34  H   MET G   6      67.068  25.053   6.346  0.00  0.00    +0.000 HD
ATOM     35  CA  MET G   6      68.778  24.382   7.457  0.00  0.00    +0.000 C 
ATOM     36  C   MET G   6      69.505  23.076   7.094  0.00  0.00    +0.000 C 
ATOM     37  O   MET G   6      70.631  22.871   7.539  0.00  0.00    +0.000 OA
ATOM     38  CB  MET G   6      67.803  24.155   8.624  0.00  0.00    +0.000 C 
ATOM     39  CG  MET G   6      68.445  23.559   9.864  0.00  0.00    +0.000 C 
ATOM     40  SD  MET G   6      67.227  23.301  11.157  0.00  0.00    +0.000 S 
ATOM     41  CE  MET G   6      68.212  22.551  12.381  0.00  0.00    +0.000 C 
ATOM     42  N   LYS G   7      68.868  22.212   6.274  0.00  0.00    +0.000 N 
ATOM     43  H   LYS G   7      67.925  22.458   5.991  0.00  0.00    +0.000 HD
ATOM     44  CA  LYS G   7      69.449  20.954   5.786  0.00  0.00    +0.000 C 
ATOM     45  C   LYS G   7      70.741  21.221   4.995  0.00  0.00    +0.000 C 
ATOM     46  O   LYS G   7      71.740  20.545   5.225  0.00  0.00    +0.000 OA
ATOM     47  CB  LYS G   7      68.445  20.185   4.903  0.00  0.00    +0.000 C 
ATOM     48  CG  LYS G   7      67.133  19.823   5.586  0.00  0.00    +0.000 C 
ATOM     49  CD  LYS G   7      66.171  19.141   4.626  0.00  0.00    +0.000 C 
ATOM     50  CE  LYS G   7      64.878  18.775   5.291  0.00  0.00    +0.000 C 
ATOM     51  NZ  LYS G   7      63.984  18.039   4.369  0.00  0.00    +0.000 N 
ATOM     52  HZ1 LYS G   7      64.423  17.180   4.063  0.00  0.00    +0.000 HD
ATOM     53  HZ2 LYS G   7      63.109  17.816   4.824  0.00  0.00    +0.000 HD
ATOM     54  HZ3 LYS G   7      63.787  18.600   3.549  0.00  0.00    +0.000 HD
ATOM     55  N   ASN G   8      70.716  22.218   4.072  0.00  0.00    +0.000 N 
ATOM     56  H   ASN G   8      69.846  22.725   3.959  0.00  0.00    +0.000 HD
ATOM     57  CA  ASN G   8      71.848  22.596   3.225  0.00  0.00    +0.000 C 
ATOM     58  C   ASN G   8      72.999  23.165   4.041  0.00  0.00    +0.000 C 
ATOM     59  O   ASN G   8      74.113  22.653   3.951  0.00  0.00    +0.000 OA
ATOM     60  CB  ASN G   8      71.431  23.634   2.163  0.00  0.00    +0.000 C 
ATOM     61  CG  ASN G   8      70.474  23.166   1.095  0.00  0.00    +0.000 C 
ATOM     62  OD1 ASN G   8      69.729  23.962   0.521  0.00  0.00    +0.000 OA
ATOM     63  ND2 ASN G   8      70.464  21.878   0.793  0.00  0.00    +0.000 N 
ATOM     64 HD21 ASN G   8      69.953  21.677  -0.064  0.00  0.00    +0.000 HD
ATOM     65 HD22 ASN G   8      71.246  21.324   1.060  0.00  0.00    +0.000 HD
ATOM     66  N   ILE G   9      72.728  24.224   4.831  0.00  0.00    +0.000 N 
ATOM     67  H   ILE G   9      71.774  24.573   4.846  0.00  0.00    +0.000 HD
ATOM     68  CA  ILE G   9      73.728  24.953   5.615  0.00  0.00    +0.000 C 
ATOM     69  C   ILE G   9      74.379  24.035   6.677  0.00  0.00    +0.000 C 
ATOM     70  O   ILE G   9      75.598  23.876   6.673  0.00  0.00    +0.000 OA
ATOM     71  CB  ILE G   9      73.097  26.209   6.291  0.00  0.00    +0.000 C 
ATOM     72  CG1 ILE G   9      72.475  27.150   5.228  0.00  0.00    +0.000 C 
ATOM     73  CG2 ILE G   9      74.141  26.953   7.144  0.00  0.00    +0.000 C 
ATOM     74  CD1 ILE G   9      71.655  28.322   5.781  0.00  0.00    +0.000 C 
ATOM     75  N   LEU G  10      73.569  23.443   7.560  0.00  0.00    +0.000 N 
ATOM     76  H   LEU G  10      72.570  23.567   7.449  0.00  0.00    +0.000 HD
ATOM     77  CA  LEU G  10      74.018  22.658   8.707  0.00  0.00    +0.000 C 
ATOM     78  C   LEU G  10      74.512  21.239   8.312  0.00  0.00    +0.000 C 
ATOM     79  O   LEU G  10      75.422  20.723   8.955  0.00  0.00    +0.000 OA
ATOM     80  CB  LEU G  10      72.836  22.544   9.690  0.00  0.00    +0.000 C 
ATOM     81  CG  LEU G  10      73.098  22.027  11.092  0.00  0.00    +0.000 C 
ATOM     82  CD1 LEU G  10      74.106  22.912  11.840  0.00  0.00    +0.000 C 
ATOM     83  CD2 LEU G  10      71.821  21.988  11.872  0.00  0.00    +0.000 C 
ATOM     84  N   GLY G  11      73.924  20.638   7.283  0.00  0.00    +0.000 N 
ATOM     85  H   GLY G  11      73.192  21.122   6.782  0.00  0.00    +0.000 HD
ATOM     86  CA  GLY G  11      74.264  19.284   6.857  0.00  0.00    +0.000 C 
ATOM     87  C   GLY G  11      75.197  19.131   5.669  0.00  0.00    +0.000 C 
ATOM     88  O   GLY G  11      75.637  18.010   5.380  0.00  0.00    +0.000 OA
ATOM     89  N   NME G  12      75.509  20.229   4.955  0.00  0.00    +0.000 N 
ATOM     90  H   NME G  12      75.112  21.130   5.190  0.00  0.00    +0.000 HD
ATOM     91  C   NME G  12      76.409  20.118   3.807  0.00  0.00    +0.000 C 
TER 
REMARK  Name = /home/xianyang/aimnet2_score_pipelines/work/L1234-fixed-receptor-eint-20260921/L4/P50052/prepared.pdb
REMARK                            x       y       z     vdW  Elec       q    Type
REMARK                         _______ _______ _______ _____ _____    ______ ____
ATOM      1  CH3 ACE H   1      79.488  12.531  -4.546  0.00  0.00    +0.000 C 
ATOM      2  C   ACE H   1      78.220  11.981  -3.841  0.00  0.00    +0.000 C 
ATOM      3  O   ACE H   1      77.165  11.930  -4.473  0.00  0.00    +0.000 OA
ATOM      4  N   CYS H   2      78.312  11.628  -2.541  0.00  0.00    +0.000 N 
ATOM      5  H   CYS H   2      79.226  11.617  -2.120  0.00  0.00    +0.000 HD
ATOM      6  CA  CYS H   2      77.212  11.000  -1.798  0.00  0.00    +0.000 C 
ATOM      7  C   CYS H   2      76.162  12.016  -1.316  0.00  0.00    +0.000 C 
ATOM      8  O   CYS H   2      74.988  11.642  -1.265  0.00  0.00    +0.000 OA
ATOM      9  CB  CYS H   2      77.755  10.221  -0.613  0.00  0.00    +0.000 C 
ATOM     10  SG  CYS H   2      78.698   8.750  -1.073  0.00  0.00    +0.000 S 
ATOM     11  HG  CYS H   2      79.256   8.501   0.117  0.00  0.00    +0.000 HD
ATOM     12  N   TRP H   3      76.545  13.245  -0.922  0.00  0.00    +0.000 N 
ATOM     13  H   TRP H   3      77.521  13.484  -0.906  0.00  0.00    +0.000 HD
ATOM     14  CA  TRP H   3      75.545  14.169  -0.368  0.00  0.00    +0.000 C 
ATOM     15  C   TRP H   3      75.161  15.353  -1.302  0.00  0.00    +0.000 C 
ATOM     16  O   TRP H   3      74.084  15.901  -1.096  0.00  0.00    +0.000 OA
ATOM     17  CB  TRP H   3      76.028  14.768   0.956  0.00  0.00    +0.000 C 
ATOM     18  CG  TRP H   3      75.977  13.792   2.095  0.00  0.00    +0.000 A 
ATOM     19  CD1 TRP H   3      77.018  13.088   2.621  0.00  0.00    +0.000 A 
ATOM     20  CD2 TRP H   3      74.793  13.321   2.763  0.00  0.00    +0.000 A 
ATOM     21  NE1 TRP H   3      76.569  12.265   3.631  0.00  0.00    +0.000 N 
ATOM     22  HE1 TRP H   3      77.149  11.664   4.198  0.00  0.00    +0.000 HD
ATOM     23  CE2 TRP H   3      75.204  12.379   3.728  0.00  0.00    +0.000 A 
ATOM     24  CE3 TRP H   3      73.422  13.622   2.653  0.00  0.00    +0.000 A 
ATOM     25  CZ2 TRP H   3      74.297  11.743   4.584  0.00  0.00    +0.000 A 
ATOM     26  CZ3 TRP H   3      72.525  12.989   3.499  0.00  0.00    +0.000 A 
ATOM     27  CH2 TRP H   3      72.963  12.066   4.453  0.00  0.00    +0.000 A 
ATOM     28  N   LEU H   4      75.993  15.751  -2.293  0.00  0.00    +0.000 N 
ATOM     29  H   LEU H   4      76.858  15.259  -2.441  0.00  0.00    +0.000 HD
ATOM     30  CA  LEU H   4      75.647  16.893  -3.158  0.00  0.00    +0.000 C 
ATOM     31  C   LEU H   4      74.309  16.644  -3.930  0.00  0.00    +0.000 C 
ATOM     32  O   LEU H   4      73.488  17.568  -3.928  0.00  0.00    +0.000 OA
ATOM     33  CB  LEU H   4      76.765  17.235  -4.158  0.00  0.00    +0.000 C 
ATOM     34  CG  LEU H   4      76.551  18.463  -5.062  0.00  0.00    +0.000 C 
ATOM     35  CD1 LEU H   4      76.329  19.741  -4.243  0.00  0.00    +0.000 C 
ATOM     36  CD2 LEU H   4      77.728  18.647  -5.999  0.00  0.00    +0.000 C 
ATOM     37  N   PRO H   5      74.020  15.446  -4.541  0.00  0.00    +0.000 N 
ATOM     38  CA  PRO H   5      72.730  15.282  -5.248  0.00  0.00    +0.000 C 
ATOM     39  C   PRO H   5      71.512  15.584  -4.351  0.00  0.00    +0.000 C 
ATOM     40  O   PRO H   5      70.606  16.291  -4.800  0.00  0.00    +0.000 OA
ATOM     41  CB  PRO H   5      72.741  13.813  -5.667  0.00  0.00    +0.000 C 
ATOM     42  CG  PRO H   5      74.169  13.474  -5.780  0.00  0.00    +0.000 C 
ATOM     43  CD  PRO H   5      74.849  14.229  -4.681  0.00  0.00    +0.000 C 
ATOM     44  N   PHE H   6      71.511  15.107  -3.083  0.00  0.00    +0.000 N 
ATOM     45  H   PHE H   6      72.304  14.573  -2.761  0.00  0.00    +0.000 HD
ATOM     46  CA  PHE H   6      70.415  15.344  -2.149  0.00  0.00    +0.000 C 
ATOM     47  C   PHE H   6      70.220  16.845  -1.854  0.00  0.00    +0.000 C 
ATOM     48  O   PHE H   6      69.079  17.314  -1.859  0.00  0.00    +0.000 OA
ATOM     49  CB  PHE H   6      70.628  14.598  -0.824  0.00  0.00    +0.000 C 
ATOM     50  CG  PHE H   6      69.555  14.900   0.203  0.00  0.00    +0.000 A 
ATOM     51  CD1 PHE H   6      68.342  14.214   0.192  0.00  0.00    +0.000 A 
ATOM     52  CD2 PHE H   6      69.742  15.899   1.156  0.00  0.00    +0.000 A 
ATOM     53  CE1 PHE H   6      67.338  14.521   1.112  0.00  0.00    +0.000 A 
ATOM     54  CE2 PHE H   6      68.736  16.207   2.076  0.00  0.00    +0.000 A 
ATOM     55  CZ  PHE H   6      67.539  15.519   2.043  0.00  0.00    +0.000 A 
ATOM     56  N   HIS H   7      71.307  17.580  -1.553  0.00  0.00    +0.000 N 
ATOM     57  H   HIS H   7      72.213  17.128  -1.549  0.00  0.00    +0.000 HD
ATOM     58  CA  HIS H   7      71.219  18.991  -1.178  0.00  0.00    +0.000 C 
ATOM     59  C   HIS H   7      70.924  19.879  -2.402  0.00  0.00    +0.000 C 
ATOM     60  O   HIS H   7      70.346  20.955  -2.223  0.00  0.00    +0.000 OA
ATOM     61  CB  HIS H   7      72.494  19.444  -0.476  0.00  0.00    +0.000 C 
ATOM     62  CG  HIS H   7      72.645  18.784   0.857  0.00  0.00    +0.000 A 
ATOM     63  ND1 HIS H   7      72.022  19.290   1.982  0.00  0.00    +0.000 N 
ATOM     64  HD1 HIS H   7      71.308  19.992   2.037  0.00  0.00    +0.000 HD
ATOM     65  CD2 HIS H   7      73.252  17.622   1.181  0.00  0.00    +0.000 A 
ATOM     66  CE1 HIS H   7      72.295  18.441   2.955  0.00  0.00    +0.000 A 
ATOM     67  NE2 HIS H   7      73.035  17.421   2.521  0.00  0.00    +0.000 NA
ATOM     68  N   VAL H   8      71.223  19.409  -3.632  0.00  0.00    +0.000 N 
ATOM     69  H   VAL H   8      71.723  18.531  -3.722  0.00  0.00    +0.000 HD
ATOM     70  CA  VAL H   8      70.862  20.158  -4.846  0.00  0.00    +0.000 C 
ATOM     71  C   VAL H   8      69.332  20.154  -4.958  0.00  0.00    +0.000 C 
ATOM     72  O   VAL H   8      68.728  21.222  -5.075  0.00  0.00    +0.000 OA
ATOM     73  CB  VAL H   8      71.551  19.617  -6.140  0.00  0.00    +0.000 C 
ATOM     74  CG1 VAL H   8      70.896  20.182  -7.409  0.00  0.00    +0.000 C 
ATOM     75  CG2 VAL H   8      73.054  19.899  -6.129  0.00  0.00    +0.000 C 
ATOM     76  N   NME H   9      68.716  18.960  -4.827  0.00  0.00    +0.000 N 
ATOM     77  H   NME H   9      69.298  18.148  -4.657  0.00  0.00    +0.000 HD
ATOM     78  C   NME H   9      67.257  18.762  -4.897  0.00  0.00    +0.000 C 
TER 
REMARK  Name = /home/xianyang/aimnet2_score_pipelines/work/L1234-fixed-receptor-eint-20260921/L4/P50052/prepared.pdb
REMARK                            x       y       z     vdW  Elec       q    Type
REMARK                         _______ _______ _______ _____ _____    ______ ____
ATOM      1  CH3 ACE I   1      65.041  11.718  -8.080  0.00  0.00    +0.000 C 
ATOM      2  C   ACE I   1      65.392  11.638  -6.598  0.00  0.00    +0.000 C 
ATOM      3  O   ACE I   1      66.432  11.078  -6.248  0.00  0.00    +0.000 OA
ATOM      4  N   LEU I   2      64.525  12.189  -5.731  0.00  0.00    +0.000 N 
ATOM      5  H   LEU I   2      63.711  12.644  -6.112  0.00  0.00    +0.000 HD
ATOM      6  CA  LEU I   2      64.755  12.306  -4.291  0.00  0.00    +0.000 C 
ATOM      7  C   LEU I   2      64.943  10.913  -3.605  0.00  0.00    +0.000 C 
ATOM      8  O   LEU I   2      65.903  10.806  -2.850  0.00  0.00    +0.000 OA
ATOM      9  CB  LEU I   2      63.603  13.065  -3.621  0.00  0.00    +0.000 C 
ATOM     10  CG  LEU I   2      63.862  13.664  -2.240  0.00  0.00    +0.000 C 
ATOM     11  CD1 LEU I   2      65.025  14.672  -2.266  0.00  0.00    +0.000 C 
ATOM     12  CD2 LEU I   2      62.628  14.360  -1.742  0.00  0.00    +0.000 C 
ATOM     13  N   PRO I   3      64.130   9.836  -3.840  0.00  0.00    +0.000 N 
ATOM     14  CA  PRO I   3      64.406   8.553  -3.152  0.00  0.00    +0.000 C 
ATOM     15  C   PRO I   3      65.798   7.993  -3.485  0.00  0.00    +0.000 C 
ATOM     16  O   PRO I   3      66.404   7.348  -2.636  0.00  0.00    +0.000 OA
ATOM     17  CB  PRO I   3      63.305   7.618  -3.679  0.00  0.00    +0.000 C 
ATOM     18  CG  PRO I   3      62.231   8.512  -4.141  0.00  0.00    +0.000 C 
ATOM     19  CD  PRO I   3      62.926   9.721  -4.688  0.00  0.00    +0.000 C 
ATOM     20  N   PHE I   4      66.312   8.267  -4.701  0.00  0.00    +0.000 N 
ATOM     21  H   PHE I   4      65.779   8.845  -5.332  0.00  0.00    +0.000 HD
ATOM     22  CA  PHE I   4      67.640   7.832  -5.136  0.00  0.00    +0.000 C 
ATOM     23  C   PHE I   4      68.743   8.674  -4.474  0.00  0.00    +0.000 C 
ATOM     24  O   PHE I   4      69.750   8.116  -4.039  0.00  0.00    +0.000 OA
ATOM     25  CB  PHE I   4      67.771   7.908  -6.660  0.00  0.00    +0.000 C 
ATOM     26  CG  PHE I   4      66.877   6.957  -7.418  0.00  0.00    +0.000 A 
ATOM     27  CD1 PHE I   4      67.319   5.686  -7.760  0.00  0.00    +0.000 A 
ATOM     28  CD2 PHE I   4      65.612   7.351  -7.839  0.00  0.00    +0.000 A 
ATOM     29  CE1 PHE I   4      66.504   4.819  -8.496  0.00  0.00    +0.000 A 
ATOM     30  CE2 PHE I   4      64.799   6.483  -8.571  0.00  0.00    +0.000 A 
ATOM     31  CZ  PHE I   4      65.252   5.226  -8.899  0.00  0.00    +0.000 A 
ATOM     32  N   ALA I   5      68.551  10.013  -4.394  0.00  0.00    +0.000 N 
ATOM     33  H   ALA I   5      67.726  10.405  -4.836  0.00  0.00    +0.000 HD
ATOM     34  CA  ALA I   5      69.508  10.944  -3.781  0.00  0.00    +0.000 C 
ATOM     35  C   ALA I   5      69.653  10.682  -2.284  0.00  0.00    +0.000 C 
ATOM     36  O   ALA I   5      70.740  10.891  -1.737  0.00  0.00    +0.000 OA
ATOM     37  CB  ALA I   5      69.073  12.371  -4.012  0.00  0.00    +0.000 C 
ATOM     38  N   ILE I   6      68.557  10.218  -1.630  0.00  0.00    +0.000 N 
ATOM     39  H   ILE I   6      67.690  10.182  -2.156  0.00  0.00    +0.000 HD
ATOM     40  CA  ILE I   6      68.499   9.846  -0.211  0.00  0.00    +0.000 C 
ATOM     41  C   ILE I   6      69.343   8.572   0.002  0.00  0.00    +0.000 C 
ATOM     42  O   ILE I   6      70.034   8.470   1.014  0.00  0.00    +0.000 OA
ATOM     43  CB  ILE I   6      67.013   9.660   0.267  0.00  0.00    +0.000 C 
ATOM     44  CG1 ILE I   6      66.279  11.031   0.296  0.00  0.00    +0.000 C 
ATOM     45  CG2 ILE I   6      66.941   8.987   1.654  0.00  0.00    +0.000 C 
ATOM     46  CD1 ILE I   6      64.759  10.990   0.620  0.00  0.00    +0.000 C 
ATOM     47  N   LEU I   7      69.317   7.633  -0.964  0.00  0.00    +0.000 N 
ATOM     48  H   LEU I   7      68.745   7.796  -1.781  0.00  0.00    +0.000 HD
ATOM     49  CA  LEU I   7      70.081   6.386  -0.887  0.00  0.00    +0.000 C 
ATOM     50  C   LEU I   7      71.608   6.666  -0.894  0.00  0.00    +0.000 C 
ATOM     51  O   LEU I   7      72.323   6.033  -0.120  0.00  0.00    +0.000 OA
ATOM     52  CB  LEU I   7      69.706   5.450  -2.045  0.00  0.00    +0.000 C 
ATOM     53  CG  LEU I   7      70.304   4.046  -2.023  0.00  0.00    +0.000 C 
ATOM     54  CD1 LEU I   7      69.802   3.254  -0.823  0.00  0.00    +0.000 C 
ATOM     55  CD2 LEU I   7      69.956   3.311  -3.284  0.00  0.00    +0.000 C 
ATOM     56  N   LEU I   8      72.092   7.623  -1.732  0.00  0.00    +0.000 N 
ATOM     57  H   LEU I   8      71.439   8.083  -2.355  0.00  0.00    +0.000 HD
ATOM     58  CA  LEU I   8      73.514   8.001  -1.796  0.00  0.00    +0.000 C 
ATOM     59  C   LEU I   8      74.009   8.565  -0.454  0.00  0.00    +0.000 C 
ATOM     60  O   LEU I   8      75.183   8.403  -0.127  0.00  0.00    +0.000 OA
ATOM     61  CB  LEU I   8      73.796   9.022  -2.905  0.00  0.00    +0.000 C 
ATOM     62  CG  LEU I   8      73.695   8.543  -4.354  0.00  0.00    +0.000 C 
ATOM     63  CD1 LEU I   8      73.841   9.711  -5.312  0.00  0.00    +0.000 C 
ATOM     64  CD2 LEU I   8      74.752   7.485  -4.668  0.00  0.00    +0.000 C 
ATOM     65  N   GLY I   9      73.114   9.196   0.305  0.00  0.00    +0.000 N 
ATOM     66  H   GLY I   9      72.189   9.351  -0.072  0.00  0.00    +0.000 HD
ATOM     67  CA  GLY I   9      73.407   9.708   1.637  0.00  0.00    +0.000 C 
ATOM     68  C   GLY I   9      73.752   8.575   2.580  0.00  0.00    +0.000 C 
ATOM     69  O   GLY I   9      74.755   8.651   3.293  0.00  0.00    +0.000 OA
ATOM     70  N   PHE I  10      72.944   7.484   2.549  0.00  0.00    +0.000 N 
ATOM     71  H   PHE I  10      72.130   7.515   1.949  0.00  0.00    +0.000 HD
ATOM     72  CA  PHE I  10      73.185   6.263   3.331  0.00  0.00    +0.000 C 
ATOM     73  C   PHE I  10      74.405   5.501   2.807  0.00  0.00    +0.000 C 
ATOM     74  O   PHE I  10      75.059   4.805   3.577  0.00  0.00    +0.000 OA
ATOM     75  CB  PHE I  10      71.962   5.323   3.325  0.00  0.00    +0.000 C 
ATOM     76  CG  PHE I  10      70.744   5.793   4.078  0.00  0.00    +0.000 A 
ATOM     77  CD1 PHE I  10      70.645   5.614   5.451  0.00  0.00    +0.000 A 
ATOM     78  CD2 PHE I  10      69.641   6.297   3.402  0.00  0.00    +0.000 A 
ATOM     79  CE1 PHE I  10      69.499   6.012   6.146  0.00  0.00    +0.000 A 
ATOM     80  CE2 PHE I  10      68.485   6.673   4.096  0.00  0.00    +0.000 A 
ATOM     81  CZ  PHE I  10      68.426   6.536   5.463  0.00  0.00    +0.000 A 
ATOM     82  N   THR I  11      74.694   5.621   1.492  0.00  0.00    +0.000 N 
ATOM     83  H   THR I  11      74.066   6.185   0.935  0.00  0.00    +0.000 HD
ATOM     84  CA  THR I  11      75.813   4.954   0.826  0.00  0.00    +0.000 C 
ATOM     85  C   THR I  11      77.136   5.538   1.358  0.00  0.00    +0.000 C 
ATOM     86  O   THR I  11      78.132   4.816   1.392  0.00  0.00    +0.000 OA
ATOM     87  CB  THR I  11      75.682   5.092  -0.702  0.00  0.00    +0.000 C 
ATOM     88  OG1 THR I  11      74.414   4.569  -1.086  0.00  0.00    +0.000 OA
ATOM     89  HG1 THR I  11      73.716   5.049  -0.620  0.00  0.00    +0.000 HD
ATOM     90  CG2 THR I  11      76.764   4.347  -1.467  0.00  0.00    +0.000 C 
ATOM     91  N   NME I  12      77.134   6.809   1.838  0.00  0.00    +0.000 N 
ATOM     92  H   NME I  12      76.276   7.344   1.788  0.00  0.00    +0.000 HD
ATOM     93  C   NME I  12      78.326   7.435   2.431  0.00  0.00    +0.000 C 
TER 
