REMARK  Name = /data/user_data/xianyang/t3-aimnet-affinity-balanced/L2/Q06187/pocket.pdb
REMARK                            x       y       z     vdW  Elec       q    Type
REMARK                         _______ _______ _______ _____ _____    ______ ____
ATOM      1  N   LEU A   1      -4.323 -30.138  27.805  0.00  0.00    +0.000 N 
ATOM      2  CA  LEU A   1      -3.187 -30.111  26.897  0.00  0.00    +0.000 C 
ATOM      3  C   LEU A   1      -2.755 -28.703  26.519  0.00  0.00    +0.000 C 
ATOM      4  O   LEU A   1      -1.592 -28.510  26.150  0.00  0.00    +0.000 OA
ATOM      5  CB  LEU A   1      -3.561 -30.854  25.611  0.00  0.00    +0.000 C 
ATOM      6  CG  LEU A   1      -3.680 -32.368  25.764  0.00  0.00    +0.000 C 
ATOM      7  CD1 LEU A   1      -4.175 -32.983  24.482  0.00  0.00    +0.000 C 
ATOM      8  CD2 LEU A   1      -2.349 -32.969  26.180  0.00  0.00    +0.000 C 
ATOM      9  N   GLY A   2      -3.638 -27.732  26.604  0.00  0.00    +0.000 N 
ATOM     10  CA  GLY A   2      -3.363 -26.374  26.199  0.00  0.00    +0.000 C 
ATOM     11  C   GLY A   2      -4.572 -25.793  25.506  0.00  0.00    +0.000 C 
ATOM     12  O   GLY A   2      -5.670 -26.342  25.564  0.00  0.00    +0.000 OA
ATOM     13  N   THR A   3      -4.379 -24.648  24.866  0.00  0.00    +0.000 N 
ATOM     14  CA  THR A   3      -5.457 -23.965  24.168  0.00  0.00    +0.000 C 
ATOM     15  C   THR A   3      -4.979 -23.648  22.761  0.00  0.00    +0.000 C 
ATOM     16  O   THR A   3      -3.823 -23.271  22.560  0.00  0.00    +0.000 OA
ATOM     17  CB  THR A   3      -5.884 -22.677  24.910  0.00  0.00    +0.000 C 
ATOM     18  OG1 THR A   3      -7.098 -22.166  24.337  0.00  0.00    +0.000 OA
ATOM     19  CG2 THR A   3      -4.796 -21.615  24.883  0.00  0.00    +0.000 C 
ATOM     20  N   GLY A   4      -5.855 -23.847  21.783  0.00  0.00    +0.000 N 
ATOM     21  CA  GLY A   4      -5.496 -23.565  20.406  0.00  0.00    +0.000 C 
ATOM     22  C   GLY A   4      -6.647 -22.880  19.711  0.00  0.00    +0.000 C 
ATOM     23  O   GLY A   4      -7.511 -22.293  20.377  0.00  0.00    +0.000 OA
ATOM     24  N   GLN A   5      -6.686 -22.964  18.384  0.00  0.00    +0.000 N 
ATOM     25  CA  GLN A   5      -7.785 -22.347  17.651  0.00  0.00    +0.000 C 
ATOM     26  C   GLN A   5      -9.089 -22.939  18.141  0.00  0.00    +0.000 C 
ATOM     27  O   GLN A   5      -9.218 -24.158  18.282  0.00  0.00    +0.000 OA
ATOM     28  CB  GLN A   5      -7.649 -22.591  16.150  0.00  0.00    +0.000 C 
ATOM     29  CG  GLN A   5      -6.408 -21.950  15.527  0.00  0.00    +0.000 C 
ATOM     30  CD  GLN A   5      -6.587 -20.469  15.245  0.00  0.00    +0.000 C 
ATOM     31  OE1 GLN A   5      -7.691 -19.917  15.294  0.00  0.00    +0.000 OA
ATOM     32  NE2 GLN A   5      -5.482 -19.811  14.950  0.00  0.00    +0.000 N 
ATOM     33  N   PHE A   6     -10.043 -22.065  18.443  0.00  0.00    +0.000 N 
ATOM     34  CA  PHE A   6     -11.400 -22.421  18.854  0.00  0.00    +0.000 C 
ATOM     35  C   PHE A   6     -11.531 -22.961  20.270  0.00  0.00    +0.000 C 
ATOM     36  O   PHE A   6     -12.659 -23.268  20.673  0.00  0.00    +0.000 OA
ATOM     37  CB  PHE A   6     -12.104 -23.365  17.865  0.00  0.00    +0.000 C 
ATOM     38  CG  PHE A   6     -11.873 -22.991  16.418  0.00  0.00    +0.000 A 
ATOM     39  CD2 PHE A   6     -12.229 -21.734  15.963  0.00  0.00    +0.000 A 
ATOM     40  CD1 PHE A   6     -11.249 -23.871  15.542  0.00  0.00    +0.000 A 
ATOM     41  CE2 PHE A   6     -12.009 -21.360  14.640  0.00  0.00    +0.000 A 
ATOM     42  CE1 PHE A   6     -11.024 -23.506  14.219  0.00  0.00    +0.000 A 
ATOM     43  CZ  PHE A   6     -11.393 -22.246  13.776  0.00  0.00    +0.000 A 
ATOM     44  H   LEU A   1      -4.564 -31.106  28.020  0.00  0.00    +0.000 HD
ATOM     45  H   LEU A   1      -5.121 -29.679  27.365  0.00  0.00    +0.000 HD
ATOM     46  H   LEU A   1      -4.081 -29.648  28.667  0.00  0.00    +0.000 HD
ATOM     47  H   GLY A   2      -4.531 -27.942  26.962  0.00  0.00    +0.000 HD
ATOM     48  H   THR A   3      -3.479 -24.248  24.863  0.00  0.00    +0.000 HD
ATOM     49  H   THR A   3      -6.945 -21.937  23.407  0.00  0.00    +0.000 HD
ATOM     50  H   GLY A   4      -6.754 -24.188  21.994  0.00  0.00    +0.000 HD
ATOM     51  H   GLN A   5      -5.975 -23.441  17.898  0.00  0.00    +0.000 HD
ATOM     52  H   GLN A   5      -5.520 -18.847  14.755  0.00  0.00    +0.000 HD
ATOM     53  H   GLN A   5      -4.619 -20.284  14.925  0.00  0.00    +0.000 HD
ATOM     54  H   PHE A   6      -9.820 -21.108  18.386  0.00  0.00    +0.000 HD
TER 
REMARK  Name = /data/user_data/xianyang/t3-aimnet-affinity-balanced/L2/Q06187/pocket.pdb
REMARK                            x       y       z     vdW  Elec       q    Type
REMARK                         _______ _______ _______ _____ _____    ______ ____
ATOM      1  N   VAL B   1      -7.999 -27.738  24.665  0.00  0.00    +0.000 N 
ATOM      2  CA  VAL B   1      -7.879 -29.130  24.254  0.00  0.00    +0.000 C 
ATOM      3  C   VAL B   1      -7.495 -29.962  25.471  0.00  0.00    +0.000 C 
ATOM      4  O   VAL B   1      -6.618 -29.570  26.251  0.00  0.00    +0.000 OA
ATOM      5  CB  VAL B   1      -6.831 -29.305  23.138  0.00  0.00    +0.000 C 
ATOM      6  CG2 VAL B   1      -6.832 -30.741  22.616  0.00  0.00    +0.000 C 
ATOM      7  CG1 VAL B   1      -7.082 -28.314  21.996  0.00  0.00    +0.000 C 
ATOM      8  H   VAL B   1      -8.256 -27.167  23.860  0.00  0.00    +0.000 HD
ATOM      9  H   VAL B   1      -7.107 -27.416  25.039  0.00  0.00    +0.000 HD
ATOM     10  H   VAL B   1      -8.718 -27.656  25.383  0.00  0.00    +0.000 HD
TER 
REMARK  Name = /data/user_data/xianyang/t3-aimnet-affinity-balanced/L2/Q06187/pocket.pdb
REMARK                            x       y       z     vdW  Elec       q    Type
REMARK                         _______ _______ _______ _____ _____    ______ ____
ATOM      1  N   ALA C   1      -8.099 -36.671  21.517  0.00  0.00    +0.000 N 
ATOM      2  CA  ALA C   1      -8.078 -35.264  21.878  0.00  0.00    +0.000 C 
ATOM      3  C   ALA C   1      -9.508 -34.753  21.848  0.00  0.00    +0.000 C 
ATOM      4  O   ALA C   1     -10.282 -35.105  20.950  0.00  0.00    +0.000 OA
ATOM      5  CB  ALA C   1      -7.223 -34.449  20.900  0.00  0.00    +0.000 C 
ATOM      6  N   ILE C   2      -9.862 -33.934  22.834  0.00  0.00    +0.000 N 
ATOM      7  CA  ILE C   2     -11.199 -33.359  22.955  0.00  0.00    +0.000 C 
ATOM      8  C   ILE C   2     -11.046 -31.851  23.070  0.00  0.00    +0.000 C 
ATOM      9  O   ILE C   2     -10.421 -31.354  24.018  0.00  0.00    +0.000 OA
ATOM     10  CB  ILE C   2     -11.957 -33.909  24.177  0.00  0.00    +0.000 C 
ATOM     11  CG1 ILE C   2     -11.937 -35.440  24.179  0.00  0.00    +0.000 C 
ATOM     12  CG2 ILE C   2     -13.388 -33.357  24.179  0.00  0.00    +0.000 C 
ATOM     13  CD1 ILE C   2     -12.348 -36.066  25.531  0.00  0.00    +0.000 C 
ATOM     14  N   LYS C   3     -11.612 -31.120  22.114  0.00  0.00    +0.000 N 
ATOM     15  CA  LYS C   3     -11.539 -29.667  22.103  0.00  0.00    +0.000 C 
ATOM     16  C   LYS C   3     -12.909 -29.110  22.446  0.00  0.00    +0.000 C 
ATOM     17  O   LYS C   3     -13.927 -29.587  21.922  0.00  0.00    +0.000 OA
ATOM     18  CB  LYS C   3     -11.066 -29.132  20.743  0.00  0.00    +0.000 C 
ATOM     19  CG  LYS C   3     -11.042 -27.596  20.667  0.00  0.00    +0.000 C 
ATOM     20  CD  LYS C   3     -10.517 -27.082  19.317  0.00  0.00    +0.000 C 
ATOM     21  CE  LYS C   3      -9.015 -27.293  19.167  0.00  0.00    +0.000 C 
ATOM     22  NZ  LYS C   3      -8.230 -26.182  19.780  0.00  0.00    +0.000 N 
ATOM     23  H   ALA C   1      -7.148 -37.039  21.530  0.00  0.00    +0.000 HD
ATOM     24  H   ALA C   1      -8.492 -36.776  20.582  0.00  0.00    +0.000 HD
ATOM     25  H   ALA C   1      -8.672 -37.185  22.186  0.00  0.00    +0.000 HD
ATOM     26  H   ILE C   2      -9.190 -33.704  23.516  0.00  0.00    +0.000 HD
ATOM     27  H   LYS C   3     -12.097 -31.577  21.389  0.00  0.00    +0.000 HD
ATOM     28  H   LYS C   3      -8.460 -25.305  19.312  0.00  0.00    +0.000 HD
ATOM     29  H   LYS C   3      -7.233 -26.372  19.676  0.00  0.00    +0.000 HD
ATOM     30  H   LYS C   3      -8.460 -26.109  20.771  0.00  0.00    +0.000 HD
TER 
REMARK  Name = /data/user_data/xianyang/t3-aimnet-affinity-balanced/L2/Q06187/pocket.pdb
REMARK                            x       y       z     vdW  Elec       q    Type
REMARK                         _______ _______ _______ _____ _____    ______ ____
ATOM      1  N   MET D   1     -14.426 -31.424   7.570  0.00  0.00    +0.000 N 
ATOM      2  CA  MET D   1     -13.365 -32.257   8.123  0.00  0.00    +0.000 C 
ATOM      3  C   MET D   1     -13.608 -33.736   7.870  0.00  0.00    +0.000 C 
ATOM      4  O   MET D   1     -12.682 -34.461   7.482  0.00  0.00    +0.000 OA
ATOM      5  CB  MET D   1     -13.208 -31.957   9.613  0.00  0.00    +0.000 C 
ATOM      6  CG  MET D   1     -11.917 -32.444  10.194  0.00  0.00    +0.000 C 
ATOM      7  SD  MET D   1     -11.965 -32.363  11.987  0.00  0.00    +0.000 S 
ATOM      8  CE  MET D   1     -10.340 -33.004  12.395  0.00  0.00    +0.000 C 
ATOM      9  H   MET D   1     -14.531 -31.624   6.575  0.00  0.00    +0.000 HD
ATOM     10  H   MET D   1     -14.187 -30.441   7.696  0.00  0.00    +0.000 HD
ATOM     11  H   MET D   1     -15.302 -31.625   8.052  0.00  0.00    +0.000 HD
TER 
REMARK  Name = /data/user_data/xianyang/t3-aimnet-affinity-balanced/L2/Q06187/pocket.pdb
REMARK                            x       y       z     vdW  Elec       q    Type
REMARK                         _______ _______ _______ _____ _____    ______ ____
ATOM      1  N   VAL E   1      -5.258 -35.184  10.529  0.00  0.00    +0.000 N 
ATOM      2  CA  VAL E   1      -5.787 -35.646  11.814  0.00  0.00    +0.000 C 
ATOM      3  C   VAL E   1      -7.234 -36.088  11.632  0.00  0.00    +0.000 C 
ATOM      4  O   VAL E   1      -8.040 -35.384  11.013  0.00  0.00    +0.000 OA
ATOM      5  CB  VAL E   1      -5.643 -34.534  12.860  0.00  0.00    +0.000 C 
ATOM      6  CG2 VAL E   1      -6.177 -35.009  14.212  0.00  0.00    +0.000 C 
ATOM      7  CG1 VAL E   1      -4.177 -34.116  13.010  0.00  0.00    +0.000 C 
ATOM      8  H   VAL E   1      -5.355 -35.925   9.835  0.00  0.00    +0.000 HD
ATOM      9  H   VAL E   1      -4.272 -34.943  10.634  0.00  0.00    +0.000 HD
ATOM     10  H   VAL E   1      -5.778 -34.362  10.223  0.00  0.00    +0.000 HD
TER 
REMARK  Name = /data/user_data/xianyang/t3-aimnet-affinity-balanced/L2/Q06187/pocket.pdb
REMARK                            x       y       z     vdW  Elec       q    Type
REMARK                         _______ _______ _______ _____ _____    ______ ____
ATOM      1  N   ILE F   1     -15.503 -31.424  20.140  0.00  0.00    +0.000 N 
ATOM      2  CA  ILE F   1     -15.054 -32.157  18.964  0.00  0.00    +0.000 C 
ATOM      3  C   ILE F   1     -13.976 -33.149  19.406  0.00  0.00    +0.000 C 
ATOM      4  O   ILE F   1     -13.109 -32.815  20.225  0.00  0.00    +0.000 OA
ATOM      5  CB  ILE F   1     -14.598 -31.211  17.821  0.00  0.00    +0.000 C 
ATOM      6  CG1 ILE F   1     -14.246 -32.006  16.570  0.00  0.00    +0.000 C 
ATOM      7  CG2 ILE F   1     -13.435 -30.308  18.274  0.00  0.00    +0.000 C 
ATOM      8  CD1 ILE F   1     -14.179 -31.135  15.292  0.00  0.00    +0.000 C 
ATOM      9  N   ILE F   2     -14.046 -34.373  18.884  0.00  0.00    +0.000 N 
ATOM     10  CA  ILE F   2     -13.210 -35.491  19.331  0.00  0.00    +0.000 C 
ATOM     11  C   ILE F   2     -12.414 -36.006  18.144  0.00  0.00    +0.000 C 
ATOM     12  O   ILE F   2     -12.995 -36.419  17.126  0.00  0.00    +0.000 OA
ATOM     13  CB  ILE F   2     -14.050 -36.627  19.950  0.00  0.00    +0.000 C 
ATOM     14  CG1 ILE F   2     -14.852 -36.134  21.168  0.00  0.00    +0.000 C 
ATOM     15  CG2 ILE F   2     -13.150 -37.787  20.360  0.00  0.00    +0.000 C 
ATOM     16  CD1 ILE F   2     -16.213 -35.519  20.846  0.00  0.00    +0.000 C 
ATOM     17  N   THR F   3     -11.087 -35.978  18.261  0.00  0.00    +0.000 N 
ATOM     18  CA  THR F   3     -10.221 -36.354  17.153  0.00  0.00    +0.000 C 
ATOM     19  C   THR F   3      -9.118 -37.303  17.603  0.00  0.00    +0.000 C 
ATOM     20  O   THR F   3      -8.884 -37.536  18.800  0.00  0.00    +0.000 OA
ATOM     21  CB  THR F   3      -9.561 -35.139  16.465  0.00  0.00    +0.000 C 
ATOM     22  OG1 THR F   3      -8.528 -34.613  17.315  0.00  0.00    +0.000 OA
ATOM     23  CG2 THR F   3     -10.576 -34.037  16.156  0.00  0.00    +0.000 C 
ATOM     24  N   GLU F   4      -8.416 -37.821  16.597  0.00  0.00    +0.000 N 
ATOM     25  CA  GLU F   4      -7.200 -38.586  16.800  0.00  0.00    +0.000 C 
ATOM     26  C   GLU F   4      -6.256 -37.818  17.720  0.00  0.00    +0.000 C 
ATOM     27  O   GLU F   4      -6.081 -36.603  17.583  0.00  0.00    +0.000 OA
ATOM     28  CB  GLU F   4      -6.584 -38.796  15.416  0.00  0.00    +0.000 C 
ATOM     29  CG  GLU F   4      -5.189 -39.352  15.366  0.00  0.00    +0.000 C 
ATOM     30  CD  GLU F   4      -4.715 -39.559  13.920  0.00  0.00    +0.000 C 
ATOM     31  OE1 GLU F   4      -5.373 -39.046  12.986  0.00  0.00    +0.000 OA
ATOM     32  OE2 GLU F   4      -3.673 -40.219  13.726  0.00  0.00    +0.000 OA
ATOM     33  N   TYR F   5      -5.675 -38.531  18.688  0.00  0.00    +0.000 N 
ATOM     34  CA  TYR F   5      -4.781 -37.926  19.672  0.00  0.00    +0.000 C 
ATOM     35  C   TYR F   5      -3.355 -37.845  19.139  0.00  0.00    +0.000 C 
ATOM     36  O   TYR F   5      -2.797 -38.840  18.675  0.00  0.00    +0.000 OA
ATOM     37  CB  TYR F   5      -4.786 -38.750  20.960  0.00  0.00    +0.000 C 
ATOM     38  CG  TYR F   5      -3.941 -38.155  22.059  0.00  0.00    +0.000 A 
ATOM     39  CD1 TYR F   5      -4.113 -36.842  22.441  0.00  0.00    +0.000 A 
ATOM     40  CD2 TYR F   5      -2.961 -38.902  22.701  0.00  0.00    +0.000 A 
ATOM     41  CE1 TYR F   5      -3.336 -36.273  23.438  0.00  0.00    +0.000 A 
ATOM     42  CE2 TYR F   5      -2.179 -38.333  23.709  0.00  0.00    +0.000 A 
ATOM     43  CZ  TYR F   5      -2.390 -37.023  24.066  0.00  0.00    +0.000 A 
ATOM     44  OH  TYR F   5      -1.643 -36.409  25.051  0.00  0.00    +0.000 OA
ATOM     45  N   MET F   6      -2.778 -36.655  19.205  0.00  0.00    +0.000 N 
ATOM     46  CA  MET F   6      -1.405 -36.393  18.769  0.00  0.00    +0.000 C 
ATOM     47  C   MET F   6      -0.541 -36.110  19.994  0.00  0.00    +0.000 C 
ATOM     48  O   MET F   6      -0.439 -34.975  20.451  0.00  0.00    +0.000 OA
ATOM     49  CB  MET F   6      -1.395 -35.257  17.753  0.00  0.00    +0.000 C 
ATOM     50  CG  MET F   6      -2.343 -35.405  16.543  0.00  0.00    +0.000 C 
ATOM     51  SD  MET F   6      -1.900 -36.840  15.513  0.00  0.00    +0.000 S 
ATOM     52  CE  MET F   6      -0.577 -36.079  14.607  0.00  0.00    +0.000 C 
ATOM     53  N   ALA F   7       0.111 -37.164  20.503  0.00  0.00    +0.000 N 
ATOM     54  CA  ALA F   7       0.694 -37.115  21.843  0.00  0.00    +0.000 C 
ATOM     55  C   ALA F   7       1.904 -36.194  21.936  0.00  0.00    +0.000 C 
ATOM     56  O   ALA F   7       2.229 -35.710  23.027  0.00  0.00    +0.000 OA
ATOM     57  CB  ALA F   7       1.096 -38.522  22.282  0.00  0.00    +0.000 C 
ATOM     58  N   ASN F   8       2.597 -35.955  20.828  0.00  0.00    +0.000 N 
ATOM     59  CA  ASN F   8       3.745 -35.059  20.841  0.00  0.00    +0.000 C 
ATOM     60  C   ASN F   8       3.381 -33.621  20.519  0.00  0.00    +0.000 C 
ATOM     61  O   ASN F   8       4.277 -32.771  20.439  0.00  0.00    +0.000 OA
ATOM     62  CB  ASN F   8       4.880 -35.588  19.960  0.00  0.00    +0.000 C 
ATOM     63  CG  ASN F   8       5.723 -36.611  20.678  0.00  0.00    +0.000 C 
ATOM     64  OD1 ASN F   8       6.195 -36.357  21.789  0.00  0.00    +0.000 OA
ATOM     65  ND2 ASN F   8       5.926 -37.763  20.055  0.00  0.00    +0.000 N 
ATOM     66  N   GLY F   9       2.089 -33.328  20.368  0.00  0.00    +0.000 N 
ATOM     67  CA  GLY F   9       1.644 -31.956  20.350  0.00  0.00    +0.000 C 
ATOM     68  C   GLY F   9       2.041 -31.199  19.093  0.00  0.00    +0.000 C 
ATOM     69  O   GLY F   9       2.229 -31.754  18.000  0.00  0.00    +0.000 OA
ATOM     70  N   CYS F  10       2.142 -29.896  19.249  0.00  0.00    +0.000 N 
ATOM     71  CA  CYS F  10       2.405 -29.006  18.133  0.00  0.00    +0.000 C 
ATOM     72  C   CYS F  10       3.830 -29.199  17.602  0.00  0.00    +0.000 C 
ATOM     73  O   CYS F  10       4.781 -29.313  18.393  0.00  0.00    +0.000 OA
ATOM     74  CB  CYS F  10       2.200 -27.597  18.671  0.00  0.00    +0.000 C 
ATOM     75  SG  CYS F  10       2.858 -26.299  17.727  0.00  0.00    +0.000 S 
ATOM     76  N   LEU F  11       3.977 -29.228  16.273  0.00  0.00    +0.000 N 
ATOM     77  CA  LEU F  11       5.279 -29.485  15.658  0.00  0.00    +0.000 C 
ATOM     78  C   LEU F  11       6.314 -28.451  16.068  0.00  0.00    +0.000 C 
ATOM     79  O   LEU F  11       7.476 -28.795  16.280  0.00  0.00    +0.000 OA
ATOM     80  CB  LEU F  11       5.146 -29.524  14.137  0.00  0.00    +0.000 C 
ATOM     81  CG  LEU F  11       6.446 -29.655  13.335  0.00  0.00    +0.000 C 
ATOM     82  CD2 LEU F  11       7.163 -30.976  13.661  0.00  0.00    +0.000 C 
ATOM     83  CD1 LEU F  11       6.144 -29.551  11.853  0.00  0.00    +0.000 C 
ATOM     84  N   LEU F  12       5.928 -27.178  16.152  0.00  0.00    +0.000 N 
ATOM     85  CA  LEU F  12       6.896 -26.148  16.524  0.00  0.00    +0.000 C 
ATOM     86  C   LEU F  12       7.531 -26.452  17.877  0.00  0.00    +0.000 C 
ATOM     87  O   LEU F  12       8.761 -26.402  18.027  0.00  0.00    +0.000 OA
ATOM     88  CB  LEU F  12       6.232 -24.772  16.521  0.00  0.00    +0.000 C 
ATOM     89  CG  LEU F  12       7.202 -23.614  16.800  0.00  0.00    +0.000 C 
ATOM     90  CD1 LEU F  12       8.305 -23.557  15.747  0.00  0.00    +0.000 C 
ATOM     91  CD2 LEU F  12       6.416 -22.308  16.807  0.00  0.00    +0.000 C 
ATOM     92  N   ASN F  13       6.717 -26.808  18.867  0.00  0.00    +0.000 N 
ATOM     93  CA  ASN F  13       7.263 -27.110  20.186  0.00  0.00    +0.000 C 
ATOM     94  C   ASN F  13       8.086 -28.392  20.159  0.00  0.00    +0.000 C 
ATOM     95  O   ASN F  13       9.140 -28.470  20.798  0.00  0.00    +0.000 OA
ATOM     96  CB  ASN F  13       6.124 -27.218  21.205  0.00  0.00    +0.000 C 
ATOM     97  CG  ASN F  13       5.450 -25.892  21.456  0.00  0.00    +0.000 C 
ATOM     98  OD1 ASN F  13       5.954 -24.839  21.053  0.00  0.00    +0.000 OA
ATOM     99  ND2 ASN F  13       4.291 -25.931  22.114  0.00  0.00    +0.000 N 
ATOM    100  H   ILE F   1     -16.224 -30.755  19.869  0.00  0.00    +0.000 HD
ATOM    101  H   ILE F   1     -14.714 -30.926  20.552  0.00  0.00    +0.000 HD
ATOM    102  H   ILE F   1     -15.886 -32.078  20.823  0.00  0.00    +0.000 HD
ATOM    103  H   ILE F   2     -14.693 -34.535  18.160  0.00  0.00    +0.000 HD
ATOM    104  H   THR F   3     -10.684 -35.697  19.114  0.00  0.00    +0.000 HD
ATOM    105  H   THR F   3      -8.918 -34.315  18.152  0.00  0.00    +0.000 HD
ATOM    106  H   GLU F   4      -8.736 -37.679  15.677  0.00  0.00    +0.000 HD
ATOM    107  H   TYR F   5      -5.855 -39.497  18.740  0.00  0.00    +0.000 HD
ATOM    108  H   TYR F   5      -1.808 -35.514  25.275  0.00  0.00    +0.000 HD
ATOM    109  H   MET F   6      -3.302 -35.904  19.568  0.00  0.00    +0.000 HD
ATOM    110  H   ALA F   7       0.199 -37.985  19.966  0.00  0.00    +0.000 HD
ATOM    111  H   ASN F   8       2.331 -36.390  19.986  0.00  0.00    +0.000 HD
ATOM    112  H   ASN F   8       5.528 -37.920  19.168  0.00  0.00    +0.000 HD
ATOM    113  H   ASN F   8       6.475 -38.462  20.479  0.00  0.00    +0.000 HD
ATOM    114  H   GLY F   9       1.433 -34.055  20.268  0.00  0.00    +0.000 HD
ATOM    115  H   CYS F  10       2.036 -29.513  20.150  0.00  0.00    +0.000 HD
ATOM    116  H   CYS F  10       2.234 -26.255  16.519  0.00  0.00    +0.000 HD
ATOM    117  H   LEU F  11       3.193 -29.073  15.697  0.00  0.00    +0.000 HD
ATOM    118  H   LEU F  12       4.993 -26.932  15.964  0.00  0.00    +0.000 HD
ATOM    119  H   ASN F  13       5.747 -26.868  18.710  0.00  0.00    +0.000 HD
ATOM    120  H   ASN F  13       3.806 -25.096  22.306  0.00  0.00    +0.000 HD
ATOM    121  H   ASN F  13       3.920 -26.795  22.407  0.00  0.00    +0.000 HD
TER 
REMARK  Name = /data/user_data/xianyang/t3-aimnet-affinity-balanced/L2/Q06187/pocket.pdb
REMARK                            x       y       z     vdW  Elec       q    Type
REMARK                         _______ _______ _______ _____ _____    ______ ____
ATOM      1  N   ALA G   1       4.695 -24.545  11.169  0.00  0.00    +0.000 N 
ATOM      2  CA  ALA G   1       4.922 -25.586  12.173  0.00  0.00    +0.000 C 
ATOM      3  C   ALA G   1       3.959 -25.472  13.348  0.00  0.00    +0.000 C 
ATOM      4  O   ALA G   1       3.581 -26.493  13.943  0.00  0.00    +0.000 OA
ATOM      5  CB  ALA G   1       6.379 -25.558  12.647  0.00  0.00    +0.000 C 
ATOM      6  N   ARG G   2       3.542 -24.248  13.701  0.00  0.00    +0.000 N 
ATOM      7  CA  ARG G   2       2.606 -24.073  14.811  0.00  0.00    +0.000 C 
ATOM      8  C   ARG G   2       1.245 -24.694  14.538  0.00  0.00    +0.000 C 
ATOM      9  O   ARG G   2       0.483 -24.898  15.491  0.00  0.00    +0.000 OA
ATOM     10  CB  ARG G   2       2.420 -22.589  15.132  0.00  0.00    +0.000 C 
ATOM     11  CG  ARG G   2       1.826 -21.784  13.974  0.00  0.00    +0.000 C 
ATOM     12  CD  ARG G   2       1.593 -20.313  14.346  0.00  0.00    +0.000 C 
ATOM     13  NE  ARG G   2       1.140 -19.559  13.183  0.00  0.00    +0.000 N 
ATOM     14  CZ  ARG G   2       1.940 -19.131  12.219  0.00  0.00    +0.000 C 
ATOM     15  NH2 ARG G   2       3.260 -19.247  12.309  0.00  0.00    +0.000 N 
ATOM     16  NH1 ARG G   2       1.404 -18.577  11.132  0.00  0.00    +0.000 N 
ATOM     17  N   ASN G   3       0.935 -25.006  13.280  0.00  0.00    +0.000 N 
ATOM     18  CA  ASN G   3      -0.343 -25.590  12.891  0.00  0.00    +0.000 C 
ATOM     19  C   ASN G   3      -0.223 -27.036  12.417  0.00  0.00    +0.000 C 
ATOM     20  O   ASN G   3      -1.138 -27.548  11.753  0.00  0.00    +0.000 OA
ATOM     21  CB  ASN G   3      -1.022 -24.718  11.837  0.00  0.00    +0.000 C 
ATOM     22  CG  ASN G   3      -1.522 -23.420  12.422  0.00  0.00    +0.000 C 
ATOM     23  OD1 ASN G   3      -1.955 -23.376  13.579  0.00  0.00    +0.000 OA
ATOM     24  ND2 ASN G   3      -1.462 -22.348  11.648  0.00  0.00    +0.000 N 
ATOM     25  N   CYS G   4       0.871 -27.707  12.737  0.00  0.00    +0.000 N 
ATOM     26  CA  CYS G   4       1.008 -29.137  12.511  0.00  0.00    +0.000 C 
ATOM     27  C   CYS G   4       1.110 -29.838  13.857  0.00  0.00    +0.000 C 
ATOM     28  O   CYS G   4       1.494 -29.234  14.859  0.00  0.00    +0.000 OA
ATOM     29  CB  CYS G   4       2.246 -29.457  11.663  0.00  0.00    +0.000 C 
ATOM     30  SG  CYS G   4       2.261 -28.709  10.019  0.00  0.00    +0.000 S 
ATOM     31  N   LEU G   5       0.766 -31.128  13.864  0.00  0.00    +0.000 N 
ATOM     32  CA  LEU G   5       0.753 -31.926  15.088  0.00  0.00    +0.000 C 
ATOM     33  C   LEU G   5       1.587 -33.187  14.885  0.00  0.00    +0.000 C 
ATOM     34  O   LEU G   5       1.792 -33.641  13.758  0.00  0.00    +0.000 OA
ATOM     35  CB  LEU G   5      -0.695 -32.297  15.449  0.00  0.00    +0.000 C 
ATOM     36  CG  LEU G   5      -1.563 -31.126  15.925  0.00  0.00    +0.000 C 
ATOM     37  CD1 LEU G   5      -3.043 -31.492  15.810  0.00  0.00    +0.000 C 
ATOM     38  CD2 LEU G   5      -1.182 -30.744  17.362  0.00  0.00    +0.000 C 
ATOM     39  H   ALA G   1       5.360 -24.660  10.404  0.00  0.00    +0.000 HD
ATOM     40  H   ALA G   1       4.823 -23.627  11.596  0.00  0.00    +0.000 HD
ATOM     41  H   ALA G   1       3.744 -24.622  10.808  0.00  0.00    +0.000 HD
ATOM     42  H   ARG G   2       3.869 -23.460  13.209  0.00  0.00    +0.000 HD
ATOM     43  H   ARG G   2       0.180 -19.356  13.110  0.00  0.00    +0.000 HD
ATOM     44  H   ARG G   2       3.834 -18.921  11.578  0.00  0.00    +0.000 HD
ATOM     45  H   ARG G   2       3.665 -19.659  13.106  0.00  0.00    +0.000 HD
ATOM     46  H   ARG G   2       1.986 -18.254  10.406  0.00  0.00    +0.000 HD
ATOM     47  H   ARG G   2       0.426 -18.491  11.055  0.00  0.00    +0.000 HD
ATOM     48  H   ASN G   3       1.603 -24.833  12.578  0.00  0.00    +0.000 HD
ATOM     49  H   ASN G   3      -1.111 -22.422  10.731  0.00  0.00    +0.000 HD
ATOM     50  H   ASN G   3      -1.769 -21.477  11.989  0.00  0.00    +0.000 HD
ATOM     51  H   CYS G   4       1.623 -27.219  13.144  0.00  0.00    +0.000 HD
ATOM     52  H   CYS G   4       2.273 -27.354  10.137  0.00  0.00    +0.000 HD
ATOM     53  H   LEU G   5       0.512 -31.557  13.015  0.00  0.00    +0.000 HD
TER 
REMARK  Name = /data/user_data/xianyang/t3-aimnet-affinity-balanced/L2/Q06187/pocket.pdb
REMARK                            x       y       z     vdW  Elec       q    Type
REMARK                         _______ _______ _______ _____ _____    ______ ____
ATOM      1  N   SER H   1      -4.216 -30.813  11.047  0.00  0.00    +0.000 N 
ATOM      2  CA  SER H   1      -5.654 -30.714  11.306  0.00  0.00    +0.000 C 
ATOM      3  C   SER H   1      -6.234 -29.715  10.316  0.00  0.00    +0.000 C 
ATOM      4  O   SER H   1      -5.688 -28.627  10.119  0.00  0.00    +0.000 OA
ATOM      5  CB  SER H   1      -5.993 -30.283  12.748  0.00  0.00    +0.000 C 
ATOM      6  OG  SER H   1      -7.424 -30.275  13.026  0.00  0.00    +0.000 OA
ATOM      7  H   SER H   1      -4.064 -31.101  10.080  0.00  0.00    +0.000 HD
ATOM      8  H   SER H   1      -3.804 -31.502  11.676  0.00  0.00    +0.000 HD
ATOM      9  H   SER H   1      -3.779 -29.905  11.204  0.00  0.00    +0.000 HD
ATOM     10  H   SER H   1      -7.863 -29.634  12.445  0.00  0.00    +0.000 HD
TER 
REMARK  Name = /data/user_data/xianyang/t3-aimnet-affinity-balanced/L2/Q06187/pocket.pdb
REMARK                            x       y       z     vdW  Elec       q    Type
REMARK                         _______ _______ _______ _____ _____    ______ ____
ATOM      1  N   PHE I   1      -9.510 -28.751  10.581  0.00  0.00    +0.000 N 
ATOM      2  CA  PHE I   1     -10.781 -28.283  11.115  0.00  0.00    +0.000 C 
ATOM      3  C   PHE I   1     -10.855 -26.756  11.127  0.00  0.00    +0.000 C 
ATOM      4  O   PHE I   1      -9.996 -26.092  11.710  0.00  0.00    +0.000 OA
ATOM      5  CB  PHE I   1     -11.000 -28.807  12.535  0.00  0.00    +0.000 C 
ATOM      6  CG  PHE I   1     -12.264 -28.275  13.152  0.00  0.00    +0.000 A 
ATOM      7  CD1 PHE I   1     -13.502 -28.717  12.714  0.00  0.00    +0.000 A 
ATOM      8  CD2 PHE I   1     -12.214 -27.290  14.122  0.00  0.00    +0.000 A 
ATOM      9  CE1 PHE I   1     -14.677 -28.203  13.263  0.00  0.00    +0.000 A 
ATOM     10  CE2 PHE I   1     -13.393 -26.776  14.673  0.00  0.00    +0.000 A 
ATOM     11  CZ  PHE I   1     -14.613 -27.244  14.234  0.00  0.00    +0.000 A 
ATOM     12  H   PHE I   1      -9.385 -28.390   9.635  0.00  0.00    +0.000 HD
ATOM     13  H   PHE I   1      -9.505 -29.771  10.559  0.00  0.00    +0.000 HD
ATOM     14  H   PHE I   1      -8.749 -28.420  11.174  0.00  0.00    +0.000 HD
TER 
REMARK  Name = /data/user_data/xianyang/t3-aimnet-affinity-balanced/L2/Q06187/pocket.pdb
REMARK                            x       y       z     vdW  Elec       q    Type
REMARK                         _______ _______ _______ _____ _____    ______ ____
ATOM      1  N   TYR J   1      -9.852 -19.624  11.156  0.00  0.00    +0.000 N 
ATOM      2  CA  TYR J   1      -8.718 -19.406  12.043  0.00  0.00    +0.000 C 
ATOM      3  C   TYR J   1      -8.553 -17.919  12.331  0.00  0.00    +0.000 C 
ATOM      4  O   TYR J   1      -8.784 -17.066  11.465  0.00  0.00    +0.000 OA
ATOM      5  CB  TYR J   1      -7.432 -19.905  11.393  0.00  0.00    +0.000 C 
ATOM      6  CG  TYR J   1      -7.002 -21.315  11.739  0.00  0.00    +0.000 A 
ATOM      7  CD2 TYR J   1      -7.934 -22.309  12.043  0.00  0.00    +0.000 A 
ATOM      8  CD1 TYR J   1      -5.650 -21.658  11.745  0.00  0.00    +0.000 A 
ATOM      9  CE2 TYR J   1      -7.527 -23.606  12.348  0.00  0.00    +0.000 A 
ATOM     10  CE1 TYR J   1      -5.241 -22.941  12.048  0.00  0.00    +0.000 A 
ATOM     11  CZ  TYR J   1      -6.177 -23.912  12.346  0.00  0.00    +0.000 A 
ATOM     12  OH  TYR J   1      -5.740 -25.182  12.627  0.00  0.00    +0.000 OA
ATOM     13  H   TYR J   1      -9.952 -20.622  10.971  0.00  0.00    +0.000 HD
ATOM     14  H   TYR J   1      -9.697 -19.129  10.278  0.00  0.00    +0.000 HD
ATOM     15  H   TYR J   1     -10.702 -19.273  11.598  0.00  0.00    +0.000 HD
ATOM     16  H   TYR J   1      -4.823 -25.374  12.622  0.00  0.00    +0.000 HD
TER 
