REMARK  Name = /data/user_data/xianyang/t3-aimnet-affinity-balanced/L3/Q92830/pocket.pdb
REMARK                            x       y       z     vdW  Elec       q    Type
REMARK                         _______ _______ _______ _____ _____    ______ ____
ATOM      1  N   TRP A   1     -10.834  -7.939   7.680  0.00  0.00    +0.000 N 
ATOM      2  CA  TRP A   1     -10.858  -7.844   9.134  0.00  0.00    +0.000 C 
ATOM      3  C   TRP A   1     -12.224  -7.611   9.760  0.00  0.00    +0.000 C 
ATOM      4  O   TRP A   1     -12.456  -8.146  10.829  0.00  0.00    +0.000 OA
ATOM      5  CB  TRP A   1      -9.830  -6.751   9.614  0.00  0.00    +0.000 C 
ATOM      6  CG  TRP A   1     -10.118  -5.332   9.275  0.00  0.00    +0.000 C 
ATOM      7  CD1 TRP A   1      -9.587  -4.575   8.208  0.00  0.00    +0.000 C 
ATOM      8  CD2 TRP A   1     -10.964  -4.436   9.974  0.00  0.00    +0.000 C 
ATOM      9  NE1 TRP A   1     -10.117  -3.343   8.200  0.00  0.00    +0.000 NA
ATOM     10  CE2 TRP A   1     -10.938  -3.201   9.286  0.00  0.00    +0.000 C 
ATOM     11  CE3 TRP A   1     -11.744  -4.547  11.122  0.00  0.00    +0.000 C 
ATOM     12  CZ2 TRP A   1     -11.662  -2.092   9.710  0.00  0.00    +0.000 C 
ATOM     13  CZ3 TRP A   1     -12.478  -3.467  11.529  0.00  0.00    +0.000 C 
ATOM     14  CH2 TRP A   1     -12.443  -2.245  10.817  0.00  0.00    +0.000 C 
ATOM     15  N   PRO A   2     -13.169  -6.882   9.148  0.00  0.00    +0.000 N 
ATOM     16  CA  PRO A   2     -14.449  -6.721   9.850  0.00  0.00    +0.000 C 
ATOM     17  C   PRO A   2     -15.281  -7.969   9.841  0.00  0.00    +0.000 C 
ATOM     18  O   PRO A   2     -16.295  -8.035  10.560  0.00  0.00    +0.000 OA
ATOM     19  CB  PRO A   2     -15.143  -5.601   9.081  0.00  0.00    +0.000 C 
ATOM     20  CG  PRO A   2     -14.085  -4.924   8.281  0.00  0.00    +0.000 C 
ATOM     21  CD  PRO A   2     -13.080  -6.006   7.973  0.00  0.00    +0.000 C 
ATOM     22  N   PHE A   3     -14.956  -8.944   8.991  0.00  0.00    +0.000 N 
ATOM     23  CA  PHE A   3     -15.831 -10.039   8.610  0.00  0.00    +0.000 C 
ATOM     24  C   PHE A   3     -15.330 -11.386   9.059  0.00  0.00    +0.000 C 
ATOM     25  O   PHE A   3     -15.886 -12.391   8.673  0.00  0.00    +0.000 OA
ATOM     26  CB  PHE A   3     -16.008  -9.994   7.077  0.00  0.00    +0.000 C 
ATOM     27  CG  PHE A   3     -16.362  -8.621   6.540  0.00  0.00    +0.000 A 
ATOM     28  CD2 PHE A   3     -17.562  -8.031   6.859  0.00  0.00    +0.000 A 
ATOM     29  CD1 PHE A   3     -15.481  -7.865   5.757  0.00  0.00    +0.000 A 
ATOM     30  CE2 PHE A   3     -17.882  -6.783   6.455  0.00  0.00    +0.000 A 
ATOM     31  CE1 PHE A   3     -15.820  -6.585   5.321  0.00  0.00    +0.000 A 
ATOM     32  CZ  PHE A   3     -17.024  -6.060   5.653  0.00  0.00    +0.000 A 
ATOM     33  N   MET A   4     -14.259 -11.398   9.856  0.00  0.00    +0.000 N 
ATOM     34  CA  MET A   4     -13.619 -12.653  10.205  0.00  0.00    +0.000 C 
ATOM     35  C   MET A   4     -14.421 -13.462  11.211  0.00  0.00    +0.000 C 
ATOM     36  O   MET A   4     -14.337 -14.695  11.200  0.00  0.00    +0.000 OA
ATOM     37  CB  MET A   4     -12.225 -12.357  10.767  0.00  0.00    +0.000 C 
ATOM     38  CG  MET A   4     -11.277 -11.798   9.792  0.00  0.00    +0.000 C 
ATOM     39  SD  MET A   4     -10.809 -12.933   8.511  0.00  0.00    +0.000 S 
ATOM     40  CE  MET A   4      -9.653 -13.998   9.344  0.00  0.00    +0.000 C 
ATOM     41  N   GLU A   5     -15.180 -12.807  12.099  0.00  0.00    +0.000 N 
ATOM     42  CA  GLU A   5     -15.921 -13.469  13.169  0.00  0.00    +0.000 C 
ATOM     43  C   GLU A   5     -17.280 -12.816  13.309  0.00  0.00    +0.000 C 
ATOM     44  O   GLU A   5     -17.473 -11.670  12.880  0.00  0.00    +0.000 OA
ATOM     45  CB  GLU A   5     -15.195 -13.395  14.517  0.00  0.00    +0.000 C 
ATOM     46  CG  GLU A   5     -13.858 -14.129  14.512  0.00  0.00    +0.000 C 
ATOM     47  CD  GLU A   5     -13.269 -14.137  15.906  0.00  0.00    +0.000 C 
ATOM     48  OE2 GLU A   5     -13.062 -13.022  16.470  0.00  0.00    +0.000 OA
ATOM     49  OE1 GLU A   5     -13.021 -15.234  16.411  0.00  0.00    +0.000 OA
ATOM     50  N   PRO A   6     -18.247 -13.469  13.965  0.00  0.00    +0.000 N 
ATOM     51  CA  PRO A   6     -19.584 -12.872  14.099  0.00  0.00    +0.000 C 
ATOM     52  C   PRO A   6     -19.578 -11.516  14.789  0.00  0.00    +0.000 C 
ATOM     53  O   PRO A   6     -18.832 -11.268  15.736  0.00  0.00    +0.000 OA
ATOM     54  CB  PRO A   6     -20.341 -13.897  14.929  0.00  0.00    +0.000 C 
ATOM     55  CG  PRO A   6     -19.636 -15.187  14.671  0.00  0.00    +0.000 C 
ATOM     56  CD  PRO A   6     -18.208 -14.844  14.492  0.00  0.00    +0.000 C 
ATOM     57  N   VAL A   7     -20.455 -10.638  14.333  0.00  0.00    +0.000 N 
ATOM     58  CA  VAL A   7     -20.641  -9.369  15.014  0.00  0.00    +0.000 C 
ATOM     59  C   VAL A   7     -21.087  -9.644  16.440  0.00  0.00    +0.000 C 
ATOM     60  O   VAL A   7     -21.909 -10.526  16.691  0.00  0.00    +0.000 OA
ATOM     61  CB  VAL A   7     -21.675  -8.513  14.264  0.00  0.00    +0.000 C 
ATOM     62  CG2 VAL A   7     -21.938  -7.205  14.998  0.00  0.00    +0.000 C 
ATOM     63  CG1 VAL A   7     -21.226  -8.217  12.843  0.00  0.00    +0.000 C 
ATOM     64  N   LYS A   8     -20.500  -8.929  17.388  0.00  0.00    +0.000 N 
ATOM     65  CA  LYS A   8     -20.887  -9.065  18.794  0.00  0.00    +0.000 C 
ATOM     66  C   LYS A   8     -22.000  -8.051  19.099  0.00  0.00    +0.000 C 
ATOM     67  O   LYS A   8     -21.999  -6.947  18.585  0.00  0.00    +0.000 OA
ATOM     68  CB  LYS A   8     -19.691  -8.823  19.724  0.00  0.00    +0.000 C 
ATOM     69  CG  LYS A   8     -18.568  -9.845  19.568  0.00  0.00    +0.000 C 
ATOM     70  CD  LYS A   8     -17.334  -9.396  20.262  0.00  0.00    +0.000 C 
ATOM     71  CE  LYS A   8     -16.367 -10.577  20.367  0.00  0.00    +0.000 C 
ATOM     72  NZ  LYS A   8     -16.953 -11.586  21.274  0.00  0.00    +0.000 N 
ATOM     73  H   TRP A   1      -9.876  -8.095   7.365  0.00  0.00    +0.000 HD
ATOM     74  H   TRP A   1     -11.188  -7.071   7.277  0.00  0.00    +0.000 HD
ATOM     75  H   TRP A   1     -11.421  -8.717   7.380  0.00  0.00    +0.000 HD
ATOM     76  H   PHE A   3     -14.056  -8.920   8.592  0.00  0.00    +0.000 HD
ATOM     77  H   MET A   4     -13.902 -10.551  10.209  0.00  0.00    +0.000 HD
ATOM     78  H   GLU A   5     -15.242 -11.827  12.027  0.00  0.00    +0.000 HD
ATOM     79  H   VAL A   7     -20.984 -10.845  13.529  0.00  0.00    +0.000 HD
ATOM     80  H   LYS A   8     -19.789  -8.293  17.143  0.00  0.00    +0.000 HD
ATOM     81  H   LYS A   8     -17.104 -11.170  22.193  0.00  0.00    +0.000 HD
ATOM     82  H   LYS A   8     -16.315 -12.378  21.359  0.00  0.00    +0.000 HD
ATOM     83  H   LYS A   8     -17.844 -11.907  20.896  0.00  0.00    +0.000 HD
TER 
REMARK  Name = /data/user_data/xianyang/t3-aimnet-affinity-balanced/L3/Q92830/pocket.pdb
REMARK                            x       y       z     vdW  Elec       q    Type
REMARK                         _______ _______ _______ _____ _____    ______ ____
ATOM      1  N   GLU B   1     -20.802  -4.696  19.942  0.00  0.00    +0.000 N 
ATOM      2  CA  GLU B   1     -20.415  -3.893  18.789  0.00  0.00    +0.000 C 
ATOM      3  C   GLU B   1     -21.606  -3.293  18.066  0.00  0.00    +0.000 C 
ATOM      4  O   GLU B   1     -21.513  -2.173  17.542  0.00  0.00    +0.000 OA
ATOM      5  CB  GLU B   1     -19.629  -4.759  17.789  0.00  0.00    +0.000 C 
ATOM      6  CG  GLU B   1     -18.336  -5.293  18.395  0.00  0.00    +0.000 C 
ATOM      7  CD  GLU B   1     -17.661  -6.421  17.623  0.00  0.00    +0.000 C 
ATOM      8  OE1 GLU B   1     -18.348  -7.137  16.856  0.00  0.00    +0.000 OA
ATOM      9  OE2 GLU B   1     -16.424  -6.632  17.897  0.00  0.00    +0.000 OA
ATOM     10  N   ALA B   2     -22.711  -3.975  18.075  0.00  0.00    +0.000 N 
ATOM     11  CA  ALA B   2     -23.922  -3.554  17.352  0.00  0.00    +0.000 C 
ATOM     12  C   ALA B   2     -25.119  -4.210  18.005  0.00  0.00    +0.000 C 
ATOM     13  O   ALA B   2     -25.470  -5.354  17.721  0.00  0.00    +0.000 OA
ATOM     14  CB  ALA B   2     -23.815  -3.939  15.895  0.00  0.00    +0.000 C 
ATOM     15  H   GLU B   1     -19.967  -5.074  20.389  0.00  0.00    +0.000 HD
ATOM     16  H   GLU B   1     -21.401  -5.463  19.636  0.00  0.00    +0.000 HD
ATOM     17  H   GLU B   1     -21.310  -4.113  20.607  0.00  0.00    +0.000 HD
ATOM     18  H   ALA B   2     -22.740  -4.814  18.590  0.00  0.00    +0.000 HD
TER 
REMARK  Name = /data/user_data/xianyang/t3-aimnet-affinity-balanced/L3/Q92830/pocket.pdb
REMARK                            x       y       z     vdW  Elec       q    Type
REMARK                         _______ _______ _______ _____ _____    ______ ____
ATOM      1  N   TYR C   1     -28.022  -5.898  16.088  0.00  0.00    +0.000 N 
ATOM      2  CA  TYR C   1     -27.629  -6.522  14.828  0.00  0.00    +0.000 C 
ATOM      3  C   TYR C   1     -28.463  -7.756  14.505  0.00  0.00    +0.000 C 
ATOM      4  O   TYR C   1     -28.807  -7.970  13.331  0.00  0.00    +0.000 OA
ATOM      5  CB  TYR C   1     -26.139  -6.896  14.886  0.00  0.00    +0.000 C 
ATOM      6  CG  TYR C   1     -25.575  -7.287  13.533  0.00  0.00    +0.000 A 
ATOM      7  CD1 TYR C   1     -25.185  -6.311  12.657  0.00  0.00    +0.000 A 
ATOM      8  CD2 TYR C   1     -25.467  -8.594  13.162  0.00  0.00    +0.000 A 
ATOM      9  CE1 TYR C   1     -24.680  -6.645  11.387  0.00  0.00    +0.000 A 
ATOM     10  CE2 TYR C   1     -24.951  -8.955  11.928  0.00  0.00    +0.000 A 
ATOM     11  CZ  TYR C   1     -24.574  -7.982  11.048  0.00  0.00    +0.000 A 
ATOM     12  OH  TYR C   1     -24.079  -8.339   9.790  0.00  0.00    +0.000 OA
ATOM     13  H   TYR C   1     -29.011  -5.649  16.051  0.00  0.00    +0.000 HD
ATOM     14  H   TYR C   1     -27.465  -5.057  16.239  0.00  0.00    +0.000 HD
ATOM     15  H   TYR C   1     -27.865  -6.552  16.855  0.00  0.00    +0.000 HD
ATOM     16  H   TYR C   1     -23.819  -7.674   9.183  0.00  0.00    +0.000 HD
TER 
REMARK  Name = /data/user_data/xianyang/t3-aimnet-affinity-balanced/L3/Q92830/pocket.pdb
REMARK                            x       y       z     vdW  Elec       q    Type
REMARK                         _______ _______ _______ _____ _____    ______ ____
ATOM      1  N   ASN D   1     -25.152  -8.064   3.886  0.00  0.00    +0.000 N 
ATOM      2  CA  ASN D   1     -25.490  -7.687   5.250  0.00  0.00    +0.000 C 
ATOM      3  C   ASN D   1     -24.776  -6.422   5.672  0.00  0.00    +0.000 C 
ATOM      4  O   ASN D   1     -25.363  -5.548   6.323  0.00  0.00    +0.000 OA
ATOM      5  CB  ASN D   1     -25.147  -8.792   6.228  0.00  0.00    +0.000 C 
ATOM      6  CG  ASN D   1     -26.061 -10.004   6.124  0.00  0.00    +0.000 C 
ATOM      7  OD1 ASN D   1     -27.179  -9.960   5.598  0.00  0.00    +0.000 OA
ATOM      8  ND2 ASN D   1     -25.616 -11.050   6.739  0.00  0.00    +0.000 N 
ATOM      9  N   CYS D   2     -23.513  -6.275   5.299  0.00  0.00    +0.000 N 
ATOM     10  CA  CYS D   2     -22.767  -5.078   5.619  0.00  0.00    +0.000 C 
ATOM     11  C   CYS D   2     -23.404  -3.846   5.000  0.00  0.00    +0.000 C 
ATOM     12  O   CYS D   2     -23.577  -2.819   5.656  0.00  0.00    +0.000 OA
ATOM     13  CB  CYS D   2     -21.333  -5.251   5.114  0.00  0.00    +0.000 C 
ATOM     14  SG  CYS D   2     -20.254  -3.862   5.566  0.00  0.00    +0.000 S 
ATOM     15  H   ASN D   1     -25.394  -7.302   3.253  0.00  0.00    +0.000 HD
ATOM     16  H   ASN D   1     -25.673  -8.901   3.625  0.00  0.00    +0.000 HD
ATOM     17  H   ASN D   1     -24.152  -8.253   3.824  0.00  0.00    +0.000 HD
ATOM     18  H   ASN D   1     -26.137 -11.885   6.730  0.00  0.00    +0.000 HD
ATOM     19  H   ASN D   1     -24.756 -11.011   7.217  0.00  0.00    +0.000 HD
ATOM     20  H   CYS D   2     -23.073  -6.996   4.793  0.00  0.00    +0.000 HD
ATOM     21  H   CYS D   2     -20.177  -3.770   6.921  0.00  0.00    +0.000 HD
TER 
REMARK  Name = /data/user_data/xianyang/t3-aimnet-affinity-balanced/L3/Q92830/pocket.pdb
REMARK                            x       y       z     vdW  Elec       q    Type
REMARK                         _______ _______ _______ _____ _____    ______ ____
ATOM      1  N   TYR E   1     -26.809  -3.070   6.875  0.00  0.00    +0.000 N 
ATOM      2  CA  TYR E   1     -26.745  -2.609   8.248  0.00  0.00    +0.000 C 
ATOM      3  C   TYR E   1     -26.081  -1.250   8.389  0.00  0.00    +0.000 C 
ATOM      4  O   TYR E   1     -26.527  -0.422   9.204  0.00  0.00    +0.000 OA
ATOM      5  CB  TYR E   1     -26.027  -3.609   9.151  0.00  0.00    +0.000 C 
ATOM      6  CG  TYR E   1     -26.168  -3.257  10.604  0.00  0.00    +0.000 A 
ATOM      7  CD2 TYR E   1     -27.339  -3.476  11.302  0.00  0.00    +0.000 A 
ATOM      8  CD1 TYR E   1     -25.129  -2.625  11.295  0.00  0.00    +0.000 A 
ATOM      9  CE2 TYR E   1     -27.434  -3.104  12.624  0.00  0.00    +0.000 A 
ATOM     10  CE1 TYR E   1     -25.254  -2.264  12.612  0.00  0.00    +0.000 A 
ATOM     11  CZ  TYR E   1     -26.439  -2.455  13.243  0.00  0.00    +0.000 A 
ATOM     12  OH  TYR E   1     -26.534  -2.031  14.582  0.00  0.00    +0.000 OA
ATOM     13  N   ASN E   2     -24.997  -0.995   7.641  0.00  0.00    +0.000 N 
ATOM     14  CA  ASN E   2     -24.137   0.148   7.869  0.00  0.00    +0.000 C 
ATOM     15  C   ASN E   2     -24.433   1.284   6.917  0.00  0.00    +0.000 C 
ATOM     16  O   ASN E   2     -25.020   1.093   5.840  0.00  0.00    +0.000 OA
ATOM     17  CB  ASN E   2     -22.665  -0.282   7.731  0.00  0.00    +0.000 C 
ATOM     18  CG  ASN E   2     -22.286  -1.298   8.738  0.00  0.00    +0.000 C 
ATOM     19  OD1 ASN E   2     -22.349  -1.050   9.952  0.00  0.00    +0.000 OA
ATOM     20  ND2 ASN E   2     -21.873  -2.458   8.296  0.00  0.00    +0.000 N 
ATOM     21  H   TYR E   1     -27.294  -2.377   6.306  0.00  0.00    +0.000 HD
ATOM     22  H   TYR E   1     -27.314  -3.955   6.837  0.00  0.00    +0.000 HD
ATOM     23  H   TYR E   1     -25.863  -3.203   6.516  0.00  0.00    +0.000 HD
ATOM     24  H   TYR E   1     -25.817  -1.579  14.982  0.00  0.00    +0.000 HD
ATOM     25  H   ASN E   2     -24.777  -1.611   6.906  0.00  0.00    +0.000 HD
ATOM     26  H   ASN E   2     -21.832  -2.630   7.327  0.00  0.00    +0.000 HD
ATOM     27  H   ASN E   2     -21.603  -3.159   8.932  0.00  0.00    +0.000 HD
TER 
REMARK  Name = /data/user_data/xianyang/t3-aimnet-affinity-balanced/L3/Q92830/pocket.pdb
REMARK                            x       y       z     vdW  Elec       q    Type
REMARK                         _______ _______ _______ _____ _____    ______ ____
ATOM      1  N   TYR F   1     -16.746   0.197   7.160  0.00  0.00    +0.000 N 
ATOM      2  CA  TYR F   1     -17.143  -1.203   6.964  0.00  0.00    +0.000 C 
ATOM      3  C   TYR F   1     -17.568  -1.460   5.516  0.00  0.00    +0.000 C 
ATOM      4  O   TYR F   1     -17.170  -2.452   4.910  0.00  0.00    +0.000 OA
ATOM      5  CB  TYR F   1     -18.271  -1.576   7.922  0.00  0.00    +0.000 C 
ATOM      6  CG  TYR F   1     -17.907  -1.583   9.390  0.00  0.00    +0.000 A 
ATOM      7  CD1 TYR F   1     -16.797  -2.205   9.859  0.00  0.00    +0.000 A 
ATOM      8  CD2 TYR F   1     -18.704  -0.900  10.268  0.00  0.00    +0.000 A 
ATOM      9  CE1 TYR F   1     -16.495  -2.181  11.234  0.00  0.00    +0.000 A 
ATOM     10  CE2 TYR F   1     -18.395  -0.826  11.584  0.00  0.00    +0.000 A 
ATOM     11  CZ  TYR F   1     -17.341  -1.517  12.054  0.00  0.00    +0.000 A 
ATOM     12  OH  TYR F   1     -17.058  -1.435  13.425  0.00  0.00    +0.000 OA
ATOM     13  H   TYR F   1     -15.992   0.430   6.513  0.00  0.00    +0.000 HD
ATOM     14  H   TYR F   1     -16.424   0.328   8.119  0.00  0.00    +0.000 HD
ATOM     15  H   TYR F   1     -17.546   0.805   6.984  0.00  0.00    +0.000 HD
ATOM     16  H   TYR F   1     -16.330  -1.905  13.782  0.00  0.00    +0.000 HD
TER 
