REMARK  Name = /data/user_data/xianyang/t3-aimnet-affinity-balanced/L2/Q15119/pocket.pdb
REMARK                            x       y       z     vdW  Elec       q    Type
REMARK                         _______ _______ _______ _____ _____    ______ ____
ATOM      1  N   GLU A   1      -1.916   2.306 -11.909  0.00  0.00    +0.000 N 
ATOM      2  CA  GLU A   1      -2.546   1.150 -11.229  0.00  0.00    +0.000 C 
ATOM      3  C   GLU A   1      -1.602  -0.062 -11.214  0.00  0.00    +0.000 C 
ATOM      4  O   GLU A   1      -1.439  -0.677 -10.127  0.00  0.00    +0.000 OA
ATOM      5  CB  GLU A   1      -3.871   0.786 -11.890  0.00  0.00    +0.000 C 
ATOM      6  CG  GLU A   1      -4.473  -0.455 -11.314  0.00  0.00    +0.000 C 
ATOM      7  CD  GLU A   1      -5.008  -0.301  -9.908  0.00  0.00    +0.000 C 
ATOM      8  OE1 GLU A   1      -5.182   0.893  -9.474  0.00  0.00    +0.000 OA
ATOM      9  OE2 GLU A   1      -5.245  -1.360  -9.265  0.00  0.00    +0.000 OA
ATOM     10  N   LEU A   2      -1.005  -0.439 -12.343  0.00  0.00    +0.000 N 
ATOM     11  CA  LEU A   2      -0.134  -1.638 -12.413  0.00  0.00    +0.000 C 
ATOM     12  C   LEU A   2       1.136  -1.447 -11.576  0.00  0.00    +0.000 C 
ATOM     13  O   LEU A   2       1.561  -2.406 -10.905  0.00  0.00    +0.000 OA
ATOM     14  CB  LEU A   2       0.198  -1.959 -13.868  0.00  0.00    +0.000 C 
ATOM     15  CG  LEU A   2      -0.990  -2.395 -14.724  0.00  0.00    +0.000 C 
ATOM     16  CD1 LEU A   2      -0.489  -2.698 -16.117  0.00  0.00    +0.000 C 
ATOM     17  CD2 LEU A   2      -1.693  -3.603 -14.135  0.00  0.00    +0.000 C 
ATOM     18  H   GLU A   1      -2.562   3.096 -11.906  0.00  0.00    +0.000 HD
ATOM     19  H   GLU A   1      -1.693   2.054 -12.872  0.00  0.00    +0.000 HD
ATOM     20  H   GLU A   1      -1.060   2.564 -11.418  0.00  0.00    +0.000 HD
ATOM     21  H   LEU A   2      -1.146   0.095 -13.158  0.00  0.00    +0.000 HD
TER 
REMARK  Name = /data/user_data/xianyang/t3-aimnet-affinity-balanced/L2/Q15119/pocket.pdb
REMARK                            x       y       z     vdW  Elec       q    Type
REMARK                         _______ _______ _______ _____ _____    ______ ____
ATOM      1  N   ASN B   1       0.252  -1.886  -7.772  0.00  0.00    +0.000 N 
ATOM      2  CA  ASN B   1       0.044  -3.324  -7.440  0.00  0.00    +0.000 C 
ATOM      3  C   ASN B   1       1.389  -4.071  -7.426  0.00  0.00    +0.000 C 
ATOM      4  O   ASN B   1       1.644  -4.899  -6.495  0.00  0.00    +0.000 OA
ATOM      5  CB  ASN B   1      -0.959  -3.941  -8.413  0.00  0.00    +0.000 C 
ATOM      6  CG  ASN B   1      -2.337  -3.330  -8.283  0.00  0.00    +0.000 C 
ATOM      7  OD1 ASN B   1      -2.671  -2.767  -7.251  0.00  0.00    +0.000 OA
ATOM      8  ND2 ASN B   1      -3.117  -3.423  -9.351  0.00  0.00    +0.000 N 
ATOM      9  N   ALA B   2       2.231  -3.884  -8.439  0.00  0.00    +0.000 N 
ATOM     10  CA  ALA B   2       3.560  -4.535  -8.499  0.00  0.00    +0.000 C 
ATOM     11  C   ALA B   2       4.419  -4.079  -7.318  0.00  0.00    +0.000 C 
ATOM     12  O   ALA B   2       5.155  -4.909  -6.732  0.00  0.00    +0.000 OA
ATOM     13  CB  ALA B   2       4.260  -4.288  -9.804  0.00  0.00    +0.000 C 
ATOM     14  H   ASN B   1      -0.647  -1.405  -7.777  0.00  0.00    +0.000 HD
ATOM     15  H   ASN B   1       0.685  -1.809  -8.693  0.00  0.00    +0.000 HD
ATOM     16  H   ASN B   1       0.861  -1.460  -7.073  0.00  0.00    +0.000 HD
ATOM     17  H   ASN B   1      -2.795  -3.889 -10.156  0.00  0.00    +0.000 HD
ATOM     18  H   ASN B   1      -4.018  -3.026  -9.339  0.00  0.00    +0.000 HD
ATOM     19  H   ALA B   2       1.960  -3.291  -9.176  0.00  0.00    +0.000 HD
TER 
REMARK  Name = /data/user_data/xianyang/t3-aimnet-affinity-balanced/L2/Q15119/pocket.pdb
REMARK                            x       y       z     vdW  Elec       q    Type
REMARK                         _______ _______ _______ _____ _____    ______ ____
ATOM      1  N   ARG C   1       3.294  -2.932  -4.355  0.00  0.00    +0.000 N 
ATOM      2  CA  ARG C   1       2.679  -3.507  -3.144  0.00  0.00    +0.000 C 
ATOM      3  C   ARG C   1       3.093  -4.982  -3.013  0.00  0.00    +0.000 C 
ATOM      4  O   ARG C   1       3.502  -5.410  -1.900  0.00  0.00    +0.000 OA
ATOM      5  CB  ARG C   1       1.172  -3.341  -3.206  0.00  0.00    +0.000 C 
ATOM      6  CG  ARG C   1       0.449  -3.941  -2.020  0.00  0.00    +0.000 C 
ATOM      7  CD  ARG C   1      -1.016  -3.580  -2.101  0.00  0.00    +0.000 C 
ATOM      8  NE  ARG C   1      -1.861  -4.603  -1.514  0.00  0.00    +0.000 N 
ATOM      9  CZ  ARG C   1      -3.182  -4.635  -1.640  0.00  0.00    +0.000 C 
ATOM     10  NH2 ARG C   1      -3.866  -5.621  -1.093  0.00  0.00    +0.000 N 
ATOM     11  NH1 ARG C   1      -3.819  -3.687  -2.302  0.00  0.00    +0.000 N 
ATOM     12  N   ALA C   2       2.976  -5.751  -4.084  0.00  0.00    +0.000 N 
ATOM     13  CA  ALA C   2       3.360  -7.188  -4.052  0.00  0.00    +0.000 C 
ATOM     14  C   ALA C   2       4.845  -7.324  -3.693  0.00  0.00    +0.000 C 
ATOM     15  O   ALA C   2       5.196  -8.247  -2.913  0.00  0.00    +0.000 OA
ATOM     16  CB  ALA C   2       3.054  -7.836  -5.355  0.00  0.00    +0.000 C 
ATOM     17  N   THR C   3       5.701  -6.526  -4.303  0.00  0.00    +0.000 N 
ATOM     18  CA  THR C   3       7.171  -6.668  -4.135  0.00  0.00    +0.000 C 
ATOM     19  C   THR C   3       7.528  -6.371  -2.676  0.00  0.00    +0.000 C 
ATOM     20  O   THR C   3       8.279  -7.134  -2.069  0.00  0.00    +0.000 OA
ATOM     21  CB  THR C   3       7.953  -5.771  -5.093  0.00  0.00    +0.000 C 
ATOM     22  OG1 THR C   3       7.622  -6.099  -6.441  0.00  0.00    +0.000 OA
ATOM     23  CG2 THR C   3       9.443  -5.922  -4.878  0.00  0.00    +0.000 C 
ATOM     24  H   ARG C   1       3.020  -1.953  -4.443  0.00  0.00    +0.000 HD
ATOM     25  H   ARG C   1       2.977  -3.449  -5.175  0.00  0.00    +0.000 HD
ATOM     26  H   ARG C   1       4.309  -2.996  -4.284  0.00  0.00    +0.000 HD
ATOM     27  H   ARG C   1      -1.429  -5.316  -0.991  0.00  0.00    +0.000 HD
ATOM     28  H   ARG C   1      -4.846  -5.650  -1.183  0.00  0.00    +0.000 HD
ATOM     29  H   ARG C   1      -3.397  -6.328  -0.594  0.00  0.00    +0.000 HD
ATOM     30  H   ARG C   1      -3.314  -2.949  -2.712  0.00  0.00    +0.000 HD
ATOM     31  H   ARG C   1      -4.799  -3.719  -2.385  0.00  0.00    +0.000 HD
ATOM     32  H   ALA C   2       2.628  -5.364  -4.919  0.00  0.00    +0.000 HD
ATOM     33  H   THR C   3       5.355  -5.814  -4.888  0.00  0.00    +0.000 HD
ATOM     34  H   THR C   3       7.864  -7.021  -6.618  0.00  0.00    +0.000 HD
TER 
REMARK  Name = /data/user_data/xianyang/t3-aimnet-affinity-balanced/L2/Q15119/pocket.pdb
REMARK                            x       y       z     vdW  Elec       q    Type
REMARK                         _______ _______ _______ _____ _____    ______ ____
ATOM      1  N   GLU D   1       5.545  -6.444   0.021  0.00  0.00    +0.000 N 
ATOM      2  CA  GLU D   1       4.877  -7.347   0.989  0.00  0.00    +0.000 C 
ATOM      3  C   GLU D   1       5.567  -8.708   0.982  0.00  0.00    +0.000 C 
ATOM      4  O   GLU D   1       5.602  -9.349   2.025  0.00  0.00    +0.000 OA
ATOM      5  CB  GLU D   1       3.407  -7.538   0.675  0.00  0.00    +0.000 C 
ATOM      6  CG  GLU D   1       2.538  -6.395   1.124  0.00  0.00    +0.000 C 
ATOM      7  CD  GLU D   1       1.078  -6.674   0.830  0.00  0.00    +0.000 C 
ATOM      8  OE1 GLU D   1       0.754  -7.820   0.428  0.00  0.00    +0.000 OA
ATOM      9  OE2 GLU D   1       0.282  -5.768   1.018  0.00  0.00    +0.000 OA
ATOM     10  H   GLU D   1       5.082  -5.535   0.028  0.00  0.00    +0.000 HD
ATOM     11  H   GLU D   1       5.489  -6.847  -0.914  0.00  0.00    +0.000 HD
ATOM     12  H   GLU D   1       6.524  -6.328   0.283  0.00  0.00    +0.000 HD
TER 
REMARK  Name = /data/user_data/xianyang/t3-aimnet-affinity-balanced/L2/Q15119/pocket.pdb
REMARK                            x       y       z     vdW  Elec       q    Type
REMARK                         _______ _______ _______ _____ _____    ______ ____
ATOM      1  N   ASP E   1       7.254  -8.251 -12.233  0.00  0.00    +0.000 N 
ATOM      2  CA  ASP E   1       7.702  -8.081 -10.832  0.00  0.00    +0.000 C 
ATOM      3  C   ASP E   1       8.068  -9.450 -10.256  0.00  0.00    +0.000 C 
ATOM      4  O   ASP E   1       7.703 -10.483 -10.856  0.00  0.00    +0.000 OA
ATOM      5  CB  ASP E   1       6.652  -7.362  -9.985  0.00  0.00    +0.000 C 
ATOM      6  CG  ASP E   1       5.364  -8.131  -9.749  0.00  0.00    +0.000 C 
ATOM      7  OD2 ASP E   1       5.463  -9.280  -9.222  0.00  0.00    +0.000 OA
ATOM      8  OD1 ASP E   1       4.299  -7.567 -10.055  0.00  0.00    +0.000 OA
ATOM      9  H   ASP E   1       7.978  -8.733 -12.765  0.00  0.00    +0.000 HD
ATOM     10  H   ASP E   1       7.080  -7.336 -12.648  0.00  0.00    +0.000 HD
ATOM     11  H   ASP E   1       6.396  -8.802 -12.251  0.00  0.00    +0.000 HD
TER 
REMARK  Name = /data/user_data/xianyang/t3-aimnet-affinity-balanced/L2/Q15119/pocket.pdb
REMARK                            x       y       z     vdW  Elec       q    Type
REMARK                         _______ _______ _______ _____ _____    ______ ____
ATOM      1  N   GLY F   1       7.135 -10.273  -7.033  0.00  0.00    +0.000 N 
ATOM      2  CA  GLY F   1       6.342 -10.053  -5.817  0.00  0.00    +0.000 C 
ATOM      3  C   GLY F   1       5.651 -11.297  -5.280  0.00  0.00    +0.000 C 
ATOM      4  O   GLY F   1       4.808 -11.134  -4.425  0.00  0.00    +0.000 OA
ATOM      5  N   GLY F   2       6.011 -12.497  -5.706  0.00  0.00    +0.000 N 
ATOM      6  CA  GLY F   2       5.450 -13.688  -5.042  0.00  0.00    +0.000 C 
ATOM      7  C   GLY F   2       4.187 -14.221  -5.700  0.00  0.00    +0.000 C 
ATOM      8  O   GLY F   2       3.920 -15.431  -5.568  0.00  0.00    +0.000 OA
ATOM      9  N   GLY F   3       3.459 -13.408  -6.464  0.00  0.00    +0.000 N 
ATOM     10  CA  GLY F   3       2.464 -13.952  -7.405  0.00  0.00    +0.000 C 
ATOM     11  C   GLY F   3       1.150 -14.295  -6.742  0.00  0.00    +0.000 C 
ATOM     12  O   GLY F   3       0.997 -14.124  -5.521  0.00  0.00    +0.000 OA
ATOM     13  N   VAL F   4       0.192 -14.710  -7.561  0.00  0.00    +0.000 N 
ATOM     14  CA  VAL F   4      -1.239 -14.956  -7.211  0.00  0.00    +0.000 C 
ATOM     15  C   VAL F   4      -1.619 -16.291  -7.838  0.00  0.00    +0.000 C 
ATOM     16  O   VAL F   4      -1.303 -16.529  -8.991  0.00  0.00    +0.000 OA
ATOM     17  CB  VAL F   4      -2.133 -13.843  -7.759  0.00  0.00    +0.000 C 
ATOM     18  CG1 VAL F   4      -3.594 -14.130  -7.455  0.00  0.00    +0.000 C 
ATOM     19  CG2 VAL F   4      -1.717 -12.474  -7.239  0.00  0.00    +0.000 C 
ATOM     20  N   PRO F   5      -2.233 -17.240  -7.109  0.00  0.00    +0.000 N 
ATOM     21  CA  PRO F   5      -2.624 -18.497  -7.742  0.00  0.00    +0.000 C 
ATOM     22  C   PRO F   5      -3.657 -18.223  -8.841  0.00  0.00    +0.000 C 
ATOM     23  O   PRO F   5      -4.495 -17.301  -8.688  0.00  0.00    +0.000 OA
ATOM     24  CB  PRO F   5      -3.213 -19.304  -6.595  0.00  0.00    +0.000 C 
ATOM     25  CG  PRO F   5      -3.535 -18.326  -5.510  0.00  0.00    +0.000 C 
ATOM     26  CD  PRO F   5      -2.573 -17.177  -5.675  0.00  0.00    +0.000 C 
ATOM     27  H   GLY F   1       7.562  -9.394  -7.324  0.00  0.00    +0.000 HD
ATOM     28  H   GLY F   1       6.529 -10.619  -7.776  0.00  0.00    +0.000 HD
ATOM     29  H   GLY F   1       7.866 -10.959  -6.843  0.00  0.00    +0.000 HD
ATOM     30  H   GLY F   2       6.643 -12.593  -6.454  0.00  0.00    +0.000 HD
ATOM     31  H   GLY F   3       3.587 -12.434  -6.399  0.00  0.00    +0.000 HD
ATOM     32  H   VAL F   4       0.451 -14.873  -8.497  0.00  0.00    +0.000 HD
TER 
REMARK  Name = /data/user_data/xianyang/t3-aimnet-affinity-balanced/L2/Q15119/pocket.pdb
REMARK                            x       y       z     vdW  Elec       q    Type
REMARK                         _______ _______ _______ _____ _____    ______ ____
ATOM      1  N   LYS G   1      -7.326 -17.259  -8.330  0.00  0.00    +0.000 N 
ATOM      2  CA  LYS G   1      -7.673 -15.972  -7.676  0.00  0.00    +0.000 C 
ATOM      3  C   LYS G   1      -7.486 -14.788  -8.633  0.00  0.00    +0.000 C 
ATOM      4  O   LYS G   1      -7.863 -13.683  -8.275  0.00  0.00    +0.000 OA
ATOM      5  CB  LYS G   1      -6.899 -15.821  -6.371  0.00  0.00    +0.000 C 
ATOM      6  CG  LYS G   1      -7.302 -16.840  -5.311  0.00  0.00    +0.000 C 
ATOM      7  CD  LYS G   1      -6.494 -16.729  -4.064  0.00  0.00    +0.000 C 
ATOM      8  CE  LYS G   1      -7.050 -17.544  -2.927  0.00  0.00    +0.000 C 
ATOM      9  NZ  LYS G   1      -6.420 -17.120  -1.654  0.00  0.00    +0.000 N 
ATOM     10  H   LYS G   1      -7.849 -17.350  -9.201  0.00  0.00    +0.000 HD
ATOM     11  H   LYS G   1      -7.565 -18.032  -7.708  0.00  0.00    +0.000 HD
ATOM     12  H   LYS G   1      -6.326 -17.280  -8.530  0.00  0.00    +0.000 HD
ATOM     13  H   LYS G   1      -5.412 -17.263  -1.709  0.00  0.00    +0.000 HD
ATOM     14  H   LYS G   1      -6.800 -17.673  -0.886  0.00  0.00    +0.000 HD
ATOM     15  H   LYS G   1      -6.615 -16.132  -1.491  0.00  0.00    +0.000 HD
TER 
REMARK  Name = /data/user_data/xianyang/t3-aimnet-affinity-balanced/L2/Q15119/pocket.pdb
REMARK                            x       y       z     vdW  Elec       q    Type
REMARK                         _______ _______ _______ _____ _____    ______ ____
ATOM      1  N   ARG H   1     -10.803 -12.708  -9.422  0.00  0.00    +0.000 N 
ATOM      2  CA  ARG H   1     -11.208 -11.828  -8.295  0.00  0.00    +0.000 C 
ATOM      3  C   ARG H   1     -10.551 -10.448  -8.412  0.00  0.00    +0.000 C 
ATOM      4  O   ARG H   1     -11.157  -9.464  -7.981  0.00  0.00    +0.000 OA
ATOM      5  CB  ARG H   1     -10.730 -12.355  -6.936  0.00  0.00    +0.000 C 
ATOM      6  CG  ARG H   1     -11.396 -13.631  -6.480  0.00  0.00    +0.000 C 
ATOM      7  CD  ARG H   1     -10.620 -14.204  -5.330  0.00  0.00    +0.000 C 
ATOM      8  NE  ARG H   1     -11.051 -15.570  -5.092  0.00  0.00    +0.000 N 
ATOM      9  CZ  ARG H   1     -10.921 -16.197  -3.940  0.00  0.00    +0.000 C 
ATOM     10  NH2 ARG H   1     -10.370 -15.580  -2.906  0.00  0.00    +0.000 N 
ATOM     11  NH1 ARG H   1     -11.330 -17.447  -3.836  0.00  0.00    +0.000 N 
ATOM     12  N   LEU H   2      -9.295 -10.382  -8.853  0.00  0.00    +0.000 N 
ATOM     13  CA  LEU H   2      -8.583  -9.090  -8.912  0.00  0.00    +0.000 C 
ATOM     14  C   LEU H   2      -9.306  -8.154  -9.873  0.00  0.00    +0.000 C 
ATOM     15  O   LEU H   2      -9.165  -6.929  -9.687  0.00  0.00    +0.000 OA
ATOM     16  CB  LEU H   2      -7.139  -9.306  -9.378  0.00  0.00    +0.000 C 
ATOM     17  CG  LEU H   2      -6.309 -10.232  -8.499  0.00  0.00    +0.000 C 
ATOM     18  CD1 LEU H   2      -4.938 -10.365  -9.124  0.00  0.00    +0.000 C 
ATOM     19  CD2 LEU H   2      -6.238  -9.756  -7.067  0.00  0.00    +0.000 C 
ATOM     20  N   PHE H   3      -9.985  -8.677 -10.903  0.00  0.00    +0.000 N 
ATOM     21  CA  PHE H   3     -10.708  -7.840 -11.895  0.00  0.00    +0.000 C 
ATOM     22  C   PHE H   3     -12.177  -7.630 -11.527  0.00  0.00    +0.000 C 
ATOM     23  O   PHE H   3     -12.872  -6.994 -12.321  0.00  0.00    +0.000 OA
ATOM     24  CB  PHE H   3     -10.646  -8.463 -13.278  0.00  0.00    +0.000 C 
ATOM     25  CG  PHE H   3      -9.296  -8.370 -13.913  0.00  0.00    +0.000 A 
ATOM     26  CD1 PHE H   3      -8.939  -7.229 -14.625  0.00  0.00    +0.000 A 
ATOM     27  CD2 PHE H   3      -8.408  -9.437 -13.857  0.00  0.00    +0.000 A 
ATOM     28  CE1 PHE H   3      -7.703  -7.145 -15.248  0.00  0.00    +0.000 A 
ATOM     29  CE2 PHE H   3      -7.170  -9.347 -14.478  0.00  0.00    +0.000 A 
ATOM     30  CZ  PHE H   3      -6.821  -8.207 -15.174  0.00  0.00    +0.000 A 
ATOM     31  N   SER H   4     -12.607  -8.110 -10.358  0.00  0.00    +0.000 N 
ATOM     32  CA  SER H   4     -13.987  -7.985  -9.833  0.00  0.00    +0.000 C 
ATOM     33  C   SER H   4     -14.120  -6.652  -9.105  0.00  0.00    +0.000 C 
ATOM     34  O   SER H   4     -13.247  -6.301  -8.261  0.00  0.00    +0.000 OA
ATOM     35  CB  SER H   4     -14.336  -9.167  -8.933  0.00  0.00    +0.000 C 
ATOM     36  OG  SER H   4     -14.324 -10.367  -9.690  0.00  0.00    +0.000 OA
ATOM     37  N   TYR H   5     -15.169  -5.895  -9.418  0.00  0.00    +0.000 N 
ATOM     38  CA  TYR H   5     -15.482  -4.650  -8.681  0.00  0.00    +0.000 C 
ATOM     39  C   TYR H   5     -15.729  -4.995  -7.211  0.00  0.00    +0.000 C 
ATOM     40  O   TYR H   5     -16.417  -5.978  -6.913  0.00  0.00    +0.000 OA
ATOM     41  CB  TYR H   5     -16.642  -3.904  -9.326  0.00  0.00    +0.000 C 
ATOM     42  CG  TYR H   5     -16.275  -3.421 -10.704  0.00  0.00    +0.000 A 
ATOM     43  CD2 TYR H   5     -15.589  -2.229 -10.865  0.00  0.00    +0.000 A 
ATOM     44  CD1 TYR H   5     -16.588  -4.155 -11.827  0.00  0.00    +0.000 A 
ATOM     45  CE2 TYR H   5     -15.204  -1.790 -12.119  0.00  0.00    +0.000 A 
ATOM     46  CE1 TYR H   5     -16.239  -3.721 -13.091  0.00  0.00    +0.000 A 
ATOM     47  CZ  TYR H   5     -15.579  -2.505 -13.233  0.00  0.00    +0.000 A 
ATOM     48  OH  TYR H   5     -15.191  -2.081 -14.463  0.00  0.00    +0.000 OA
ATOM     49  N   MET H   6     -15.123  -4.198  -6.346  0.00  0.00    +0.000 N 
ATOM     50  CA  MET H   6     -15.262  -4.209  -4.869  0.00  0.00    +0.000 C 
ATOM     51  C   MET H   6     -14.595  -5.458  -4.271  0.00  0.00    +0.000 C 
ATOM     52  O   MET H   6     -14.755  -5.697  -3.094  0.00  0.00    +0.000 OA
ATOM     53  CB  MET H   6     -16.731  -4.082  -4.455  0.00  0.00    +0.000 C 
ATOM     54  CG  MET H   6     -17.506  -2.995  -5.252  0.00  0.00    +0.000 C 
ATOM     55  SD  MET H   6     -16.683  -1.398  -5.489  0.00  0.00    +0.000 S 
ATOM     56  CE  MET H   6     -16.759  -0.730  -3.829  0.00  0.00    +0.000 C 
ATOM     57  N   TYR H   7     -13.726  -6.159  -4.988  0.00  0.00    +0.000 N 
ATOM     58  CA  TYR H   7     -12.866  -7.180  -4.345  0.00  0.00    +0.000 C 
ATOM     59  C   TYR H   7     -11.748  -6.459  -3.590  0.00  0.00    +0.000 C 
ATOM     60  O   TYR H   7     -11.229  -5.472  -4.127  0.00  0.00    +0.000 OA
ATOM     61  CB  TYR H   7     -12.295  -8.175  -5.352  0.00  0.00    +0.000 C 
ATOM     62  CG  TYR H   7     -11.082  -8.896  -4.825  0.00  0.00    +0.000 A 
ATOM     63  CD2 TYR H   7     -11.187 -10.109  -4.149  0.00  0.00    +0.000 A 
ATOM     64  CD1 TYR H   7      -9.825  -8.343  -4.990  0.00  0.00    +0.000 A 
ATOM     65  CE2 TYR H   7     -10.060 -10.755  -3.662  0.00  0.00    +0.000 A 
ATOM     66  CE1 TYR H   7      -8.689  -8.973  -4.503  0.00  0.00    +0.000 A 
ATOM     67  CZ  TYR H   7      -8.810 -10.181  -3.840  0.00  0.00    +0.000 A 
ATOM     68  OH  TYR H   7      -7.666 -10.767  -3.377  0.00  0.00    +0.000 OA
ATOM     69  N   SER H   8     -11.455  -6.898  -2.360  0.00  0.00    +0.000 N 
ATOM     70  CA  SER H   8     -10.273  -6.512  -1.538  0.00  0.00    +0.000 C 
ATOM     71  C   SER H   8      -9.624  -7.782  -0.969  0.00  0.00    +0.000 C 
ATOM     72  O   SER H   8     -10.312  -8.821  -0.810  0.00  0.00    +0.000 OA
ATOM     73  CB  SER H   8     -10.626  -5.530  -0.439  0.00  0.00    +0.000 C 
ATOM     74  OG  SER H   8     -11.413  -6.168   0.545  0.00  0.00    +0.000 OA
ATOM     75  N   THR H   9      -8.328  -7.729  -0.698  0.00  0.00    +0.000 N 
ATOM     76  CA  THR H   9      -7.578  -8.910  -0.188  0.00  0.00    +0.000 C 
ATOM     77  C   THR H   9      -7.969  -9.099   1.279  0.00  0.00    +0.000 C 
ATOM     78  O   THR H   9      -7.602 -10.155   1.794  0.00  0.00    +0.000 OA
ATOM     79  CB  THR H   9      -6.059  -8.778  -0.397  0.00  0.00    +0.000 C 
ATOM     80  OG1 THR H   9      -5.565  -7.843   0.562  0.00  0.00    +0.000 OA
ATOM     81  CG2 THR H   9      -5.666  -8.338  -1.792  0.00  0.00    +0.000 C 
ATOM     82  H   ARG H   1     -11.144 -12.315 -10.300  0.00  0.00    +0.000 HD
ATOM     83  H   ARG H   1     -11.202 -13.637  -9.288  0.00  0.00    +0.000 HD
ATOM     84  H   ARG H   1      -9.786 -12.776  -9.452  0.00  0.00    +0.000 HD
ATOM     85  H   ARG H   1     -11.467 -16.059  -5.839  0.00  0.00    +0.000 HD
ATOM     86  H   ARG H   1     -10.068 -14.647  -2.993  0.00  0.00    +0.000 HD
ATOM     87  H   ARG H   1     -10.262 -16.054  -2.050  0.00  0.00    +0.000 HD
ATOM     88  H   ARG H   1     -11.738 -17.897  -4.610  0.00  0.00    +0.000 HD
ATOM     89  H   ARG H   1     -11.227 -17.929  -2.984  0.00  0.00    +0.000 HD
ATOM     90  H   LEU H   2      -8.837 -11.204  -9.143  0.00  0.00    +0.000 HD
ATOM     91  H   PHE H   3     -10.006  -9.656 -11.007  0.00  0.00    +0.000 HD
ATOM     92  H   SER H   4     -11.953  -8.587  -9.798  0.00  0.00    +0.000 HD
ATOM     93  H   SER H   4     -14.978 -10.306 -10.404  0.00  0.00    +0.000 HD
ATOM     94  H   TYR H   5     -15.753  -6.171 -10.161  0.00  0.00    +0.000 HD
ATOM     95  H   TYR H   5     -15.443  -2.563 -15.226  0.00  0.00    +0.000 HD
ATOM     96  H   MET H   6     -14.513  -3.524  -6.724  0.00  0.00    +0.000 HD
ATOM     97  H   TYR H   7     -13.652  -5.999  -5.957  0.00  0.00    +0.000 HD
ATOM     98  H   TYR H   7      -6.838 -10.351  -3.515  0.00  0.00    +0.000 HD
ATOM     99  H   SER H   8     -12.083  -7.540  -1.958  0.00  0.00    +0.000 HD
ATOM    100  H   SER H   8     -12.231  -6.497   0.141  0.00  0.00    +0.000 HD
ATOM    101  H   THR H   9      -7.846  -6.882  -0.838  0.00  0.00    +0.000 HD
ATOM    102  H   THR H   9      -5.978  -6.978   0.413  0.00  0.00    +0.000 HD
TER 
REMARK  Name = /data/user_data/xianyang/t3-aimnet-affinity-balanced/L2/Q15119/pocket.pdb
REMARK                            x       y       z     vdW  Elec       q    Type
REMARK                         _______ _______ _______ _____ _____    ______ ____
ATOM      1  N   LEU I   1      -1.224   1.408  -0.214  0.00  0.00    +0.000 N 
ATOM      2  CA  LEU I   1      -1.485   1.304  -1.673  0.00  0.00    +0.000 C 
ATOM      3  C   LEU I   1      -2.671   0.363  -1.913  0.00  0.00    +0.000 C 
ATOM      4  O   LEU I   1      -2.718  -0.303  -2.981  0.00  0.00    +0.000 OA
ATOM      5  CB  LEU I   1      -0.238   0.734  -2.347  0.00  0.00    +0.000 C 
ATOM      6  CG  LEU I   1       1.043   1.542  -2.188  0.00  0.00    +0.000 C 
ATOM      7  CD1 LEU I   1       2.189   0.849  -2.903  0.00  0.00    +0.000 C 
ATOM      8  CD2 LEU I   1       0.869   2.960  -2.706  0.00  0.00    +0.000 C 
ATOM      9  N   ALA I   2      -3.582   0.262  -0.945  0.00  0.00    +0.000 N 
ATOM     10  CA  ALA I   2      -4.734  -0.662  -1.013  0.00  0.00    +0.000 C 
ATOM     11  C   ALA I   2      -5.615  -0.213  -2.175  0.00  0.00    +0.000 C 
ATOM     12  O   ALA I   2      -5.364   0.880  -2.763  0.00  0.00    +0.000 OA
ATOM     13  CB  ALA I   2      -5.508  -0.712   0.282  0.00  0.00    +0.000 C 
ATOM     14  N   GLY I   3      -6.578  -1.060  -2.517  0.00  0.00    +0.000 N 
ATOM     15  CA  GLY I   3      -7.487  -0.793  -3.637  0.00  0.00    +0.000 C 
ATOM     16  C   GLY I   3      -8.733  -0.089  -3.145  0.00  0.00    +0.000 C 
ATOM     17  O   GLY I   3      -8.965  -0.058  -1.915  0.00  0.00    +0.000 OA
ATOM     18  N   PHE I   4      -9.483   0.510  -4.068  0.00  0.00    +0.000 N 
ATOM     19  CA  PHE I   4     -10.786   1.170  -3.790  0.00  0.00    +0.000 C 
ATOM     20  C   PHE I   4     -11.887   0.296  -4.385  0.00  0.00    +0.000 C 
ATOM     21  O   PHE I   4     -13.058   0.691  -4.330  0.00  0.00    +0.000 OA
ATOM     22  CB  PHE I   4     -10.786   2.606  -4.322  0.00  0.00    +0.000 C 
ATOM     23  CG  PHE I   4      -9.666   3.477  -3.797  0.00  0.00    +0.000 A 
ATOM     24  CD2 PHE I   4      -9.541   3.727  -2.436  0.00  0.00    +0.000 A 
ATOM     25  CD1 PHE I   4      -8.733   4.043  -4.664  0.00  0.00    +0.000 A 
ATOM     26  CE2 PHE I   4      -8.498   4.507  -1.954  0.00  0.00    +0.000 A 
ATOM     27  CE1 PHE I   4      -7.693   4.826  -4.179  0.00  0.00    +0.000 A 
ATOM     28  CZ  PHE I   4      -7.580   5.059  -2.826  0.00  0.00    +0.000 A 
ATOM     29  N   GLY I   5     -11.511  -0.873  -4.918  0.00  0.00    +0.000 N 
ATOM     30  CA  GLY I   5     -12.432  -1.851  -5.521  0.00  0.00    +0.000 C 
ATOM     31  C   GLY I   5     -12.575  -1.672  -7.019  0.00  0.00    +0.000 C 
ATOM     32  O   GLY I   5     -13.359  -2.440  -7.624  0.00  0.00    +0.000 OA
ATOM     33  N   TYR I   6     -11.913  -0.686  -7.644  0.00  0.00    +0.000 N 
ATOM     34  CA  TYR I   6     -12.162  -0.470  -9.095  0.00  0.00    +0.000 C 
ATOM     35  C   TYR I   6     -10.884  -0.208  -9.915  0.00  0.00    +0.000 C 
ATOM     36  O   TYR I   6     -11.056  -0.194 -11.140  0.00  0.00    +0.000 OA
ATOM     37  CB  TYR I   6     -13.176   0.663  -9.290  0.00  0.00    +0.000 C 
ATOM     38  CG  TYR I   6     -12.834   1.953  -8.590  0.00  0.00    +0.000 A 
ATOM     39  CD1 TYR I   6     -11.821   2.799  -9.032  0.00  0.00    +0.000 A 
ATOM     40  CD2 TYR I   6     -13.505   2.311  -7.435  0.00  0.00    +0.000 A 
ATOM     41  CE1 TYR I   6     -11.543   3.994  -8.387  0.00  0.00    +0.000 A 
ATOM     42  CE2 TYR I   6     -13.236   3.496  -6.781  0.00  0.00    +0.000 A 
ATOM     43  CZ  TYR I   6     -12.234   4.320  -7.236  0.00  0.00    +0.000 A 
ATOM     44  OH  TYR I   6     -12.035   5.448  -6.495  0.00  0.00    +0.000 OA
ATOM     45  N   GLY I   7      -9.699   0.015  -9.320  0.00  0.00    +0.000 N 
ATOM     46  CA  GLY I   7      -8.507   0.450 -10.074  0.00  0.00    +0.000 C 
ATOM     47  C   GLY I   7      -8.181  -0.488 -11.234  0.00  0.00    +0.000 C 
ATOM     48  O   GLY I   7      -7.991  -0.015 -12.386  0.00  0.00    +0.000 OA
ATOM     49  N   LEU I   8      -8.051  -1.782 -10.967  0.00  0.00    +0.000 N 
ATOM     50  CA  LEU I   8      -7.588  -2.732 -11.993  0.00  0.00    +0.000 C 
ATOM     51  C   LEU I   8      -8.670  -2.946 -13.065  0.00  0.00    +0.000 C 
ATOM     52  O   LEU I   8      -8.372  -2.867 -14.240  0.00  0.00    +0.000 OA
ATOM     53  CB  LEU I   8      -7.155  -4.042 -11.345  0.00  0.00    +0.000 C 
ATOM     54  CG  LEU I   8      -6.644  -5.076 -12.342  0.00  0.00    +0.000 C 
ATOM     55  CD1 LEU I   8      -5.379  -4.589 -13.062  0.00  0.00    +0.000 C 
ATOM     56  CD2 LEU I   8      -6.373  -6.403 -11.660  0.00  0.00    +0.000 C 
ATOM     57  N   PRO I   9      -9.953  -3.245 -12.750  0.00  0.00    +0.000 N 
ATOM     58  CA  PRO I   9     -10.955  -3.391 -13.809  0.00  0.00    +0.000 C 
ATOM     59  C   PRO I   9     -11.133  -2.127 -14.664  0.00  0.00    +0.000 C 
ATOM     60  O   PRO I   9     -11.289  -2.219 -15.874  0.00  0.00    +0.000 OA
ATOM     61  CB  PRO I   9     -12.273  -3.713 -13.106  0.00  0.00    +0.000 C 
ATOM     62  CG  PRO I   9     -11.997  -3.556 -11.639  0.00  0.00    +0.000 C 
ATOM     63  CD  PRO I   9     -10.488  -3.566 -11.419  0.00  0.00    +0.000 C 
ATOM     64  H   LEU I   1      -0.435   2.034  -0.054  0.00  0.00    +0.000 HD
ATOM     65  H   LEU I   1      -1.006   0.484   0.159  0.00  0.00    +0.000 HD
ATOM     66  H   LEU I   1      -2.052   1.777   0.254  0.00  0.00    +0.000 HD
ATOM     67  H   ALA I   2      -3.483   0.830  -0.147  0.00  0.00    +0.000 HD
ATOM     68  H   GLY I   3      -6.686  -1.893  -2.003  0.00  0.00    +0.000 HD
ATOM     69  H   PHE I   4      -9.153   0.516  -4.996  0.00  0.00    +0.000 HD
ATOM     70  H   GLY I   5     -10.552  -1.094  -4.906  0.00  0.00    +0.000 HD
ATOM     71  H   TYR I   6     -11.276  -0.118  -7.153  0.00  0.00    +0.000 HD
ATOM     72  H   TYR I   6     -11.369   6.059  -6.742  0.00  0.00    +0.000 HD
ATOM     73  H   GLY I   7      -9.624  -0.116  -8.347  0.00  0.00    +0.000 HD
ATOM     74  H   LEU I   8      -8.268  -2.113 -10.066  0.00  0.00    +0.000 HD
TER 
REMARK  Name = /data/user_data/xianyang/t3-aimnet-affinity-balanced/L2/Q15119/pocket.pdb
REMARK                            x       y       z     vdW  Elec       q    Type
REMARK                         _______ _______ _______ _____ _____    ______ ____
ATOM      1  N   LEU J   1      -3.355 -10.253 -17.108  0.00  0.00    +0.000 N 
ATOM      2  CA  LEU J   1      -2.441 -10.602 -15.999  0.00  0.00    +0.000 C 
ATOM      3  C   LEU J   1      -2.054 -12.063 -16.170  0.00  0.00    +0.000 C 
ATOM      4  O   LEU J   1      -2.971 -12.894 -16.319  0.00  0.00    +0.000 OA
ATOM      5  CB  LEU J   1      -3.162 -10.541 -14.657  0.00  0.00    +0.000 C 
ATOM      6  CG  LEU J   1      -3.158  -9.239 -13.900  0.00  0.00    +0.000 C 
ATOM      7  CD2 LEU J   1      -3.777  -9.487 -12.537  0.00  0.00    +0.000 C 
ATOM      8  CD1 LEU J   1      -1.746  -8.709 -13.754  0.00  0.00    +0.000 C 
ATOM      9  H   LEU J   1      -2.850 -10.301 -17.993  0.00  0.00    +0.000 HD
ATOM     10  H   LEU J   1      -3.711  -9.307 -16.971  0.00  0.00    +0.000 HD
ATOM     11  H   LEU J   1      -4.135 -10.910 -17.126  0.00  0.00    +0.000 HD
TER 
REMARK  Name = /data/user_data/xianyang/t3-aimnet-affinity-balanced/L2/Q15119/pocket.pdb
REMARK                            x       y       z     vdW  Elec       q    Type
REMARK                         _______ _______ _______ _____ _____    ______ ____
ATOM      1  N   SER K   1       0.335 -14.609 -13.775  0.00  0.00    +0.000 N 
ATOM      2  CA  SER K   1       1.133 -14.730 -12.556  0.00  0.00    +0.000 C 
ATOM      3  CB  SER K   1       1.732 -16.131 -12.487  0.00  0.00    +0.000 C 
ATOM      4  OG  SER K   1       1.248 -17.089 -13.177  0.00  0.00    +0.000 OA
ATOM      5  C   SER K   1       0.259 -14.351 -11.351  0.00  0.00    +0.000 C 
ATOM      6  O   SER K   1       1.070 -14.108 -10.211  0.00  0.00    +0.000 OA
ATOM      7  H   SER K   1       0.907 -14.859 -14.582  0.00  0.00    +0.000 HD
ATOM      8  H   SER K   1       0.009 -13.648 -13.874  0.00  0.00    +0.000 HD
ATOM      9  H   SER K   1      -0.467 -15.236 -13.720  0.00  0.00    +0.000 HD
ATOM     10  H   SER K   1       1.570 -14.910  -9.993  0.00  0.00    +0.000 HD
TER 
REMARK  Name = /data/user_data/xianyang/t3-aimnet-affinity-balanced/L2/Q15119/pocket.pdb
REMARK                            x       y       z     vdW  Elec       q    Type
REMARK                         _______ _______ _______ _____ _____    ______ ____
ATOM      1  N   GLY L   1       6.241 -14.382  -9.087  0.00  0.00    +0.000 N 
ATOM      2  CA  GLY L   1       5.941 -12.993  -9.471  0.00  0.00    +0.000 C 
ATOM      3  C   GLY L   1       4.868 -12.937 -10.534  0.00  0.00    +0.000 C 
ATOM      4  O   GLY L   1       4.231 -13.983 -10.785  0.00  0.00    +0.000 OA
ATOM      5  N   THR L   2       4.607 -11.734 -11.021  0.00  0.00    +0.000 N 
ATOM      6  CA  THR L   2       3.467 -11.426 -11.901  0.00  0.00    +0.000 C 
ATOM      7  C   THR L   2       3.931 -10.587 -13.087  0.00  0.00    +0.000 C 
ATOM      8  O   THR L   2       4.754  -9.666 -12.915  0.00  0.00    +0.000 OA
ATOM      9  CB  THR L   2       2.344 -10.710 -11.158  0.00  0.00    +0.000 C 
ATOM     10  OG1 THR L   2       1.970 -11.519 -10.052  0.00  0.00    +0.000 OA
ATOM     11  CG2 THR L   2       1.144 -10.417 -12.033  0.00  0.00    +0.000 C 
ATOM     12  H   GLY L   1       6.967 -14.387  -8.370  0.00  0.00    +0.000 HD
ATOM     13  H   GLY L   1       6.567 -14.898  -9.904  0.00  0.00    +0.000 HD
ATOM     14  H   GLY L   1       5.398 -14.823  -8.720  0.00  0.00    +0.000 HD
ATOM     15  H   THR L   2       5.214 -10.998 -10.779  0.00  0.00    +0.000 HD
ATOM     16  H   THR L   2       1.648 -12.376 -10.373  0.00  0.00    +0.000 HD
TER 
REMARK  Name = /data/user_data/xianyang/t3-aimnet-affinity-balanced/L2/Q15119/pocket.pdb
REMARK                            x       y       z     vdW  Elec       q    Type
REMARK                         _______ _______ _______ _____ _____    ______ ____
ATOM      1  N   ALA M   1       2.034  -8.228 -16.003  0.00  0.00    +0.000 N 
ATOM      2  CA  ALA M   1       0.829  -7.557 -16.517  0.00  0.00    +0.000 C 
ATOM      3  C   ALA M   1       1.151  -7.021 -17.907  0.00  0.00    +0.000 C 
ATOM      4  O   ALA M   1       2.294  -6.542 -18.120  0.00  0.00    +0.000 OA
ATOM      5  CB  ALA M   1       0.421  -6.490 -15.550  0.00  0.00    +0.000 C 
ATOM      6  H   ALA M   1       2.321  -8.958 -16.655  0.00  0.00    +0.000 HD
ATOM      7  H   ALA M   1       1.830  -8.645 -15.095  0.00  0.00    +0.000 HD
ATOM      8  H   ALA M   1       2.786  -7.546 -15.903  0.00  0.00    +0.000 HD
TER 
