REMARK  Name = /data/user_data/xianyang/t3-aimnet-affinity-balanced/L1/Q8N1Q1/pocket.pdb
REMARK                            x       y       z     vdW  Elec       q    Type
REMARK                         _______ _______ _______ _____ _____    ______ ____
ATOM      1  N   SER A   1      33.317  63.932  34.078  0.00  0.00    +0.000 N 
ATOM      2  CA  SER A   1      33.974  64.347  32.846  0.00  0.00    +0.000 C 
ATOM      3  C   SER A   1      33.594  63.491  31.651  0.00  0.00    +0.000 C 
ATOM      4  O   SER A   1      32.985  62.429  31.789  0.00  0.00    +0.000 OA
ATOM      5  CB  SER A   1      35.494  64.288  33.025  0.00  0.00    +0.000 C 
ATOM      6  OG  SER A   1      35.906  62.957  33.300  0.00  0.00    +0.000 OA
ATOM      7  H   SER A   1      32.305  63.973  33.954  0.00  0.00    +0.000 HD
ATOM      8  H   SER A   1      33.592  64.556  34.837  0.00  0.00    +0.000 HD
ATOM      9  H   SER A   1      33.593  62.977  34.306  0.00  0.00    +0.000 HD
ATOM     10  H   SER A   1      35.484  62.650  34.117  0.00  0.00    +0.000 HD
TER 
REMARK  Name = /data/user_data/xianyang/t3-aimnet-affinity-balanced/L1/Q8N1Q1/pocket.pdb
REMARK                            x       y       z     vdW  Elec       q    Type
REMARK                         _______ _______ _______ _____ _____    ______ ____
ATOM      1  N   VAL B   1      35.677  61.957  29.833  0.00  0.00    +0.000 N 
ATOM      2  CA  VAL B   1      36.519  60.767  29.911  0.00  0.00    +0.000 C 
ATOM      3  C   VAL B   1      35.827  59.633  30.649  0.00  0.00    +0.000 C 
ATOM      4  O   VAL B   1      35.890  58.482  30.235  0.00  0.00    +0.000 OA
ATOM      5  CB  VAL B   1      37.857  61.055  30.627  0.00  0.00    +0.000 C 
ATOM      6  CG2 VAL B   1      38.665  59.761  30.754  0.00  0.00    +0.000 C 
ATOM      7  CG1 VAL B   1      38.650  62.106  29.856  0.00  0.00    +0.000 C 
ATOM      8  N   GLU B   2      35.162  59.954  31.747  0.00  0.00    +0.000 N 
ATOM      9  CA  GLU B   2      34.489  58.916  32.506  0.00  0.00    +0.000 C 
ATOM     10  C   GLU B   2      33.155  58.557  31.879  0.00  0.00    +0.000 C 
ATOM     11  O   GLU B   2      32.750  57.397  31.891  0.00  0.00    +0.000 OA
ATOM     12  CB  GLU B   2      34.346  59.366  33.955  0.00  0.00    +0.000 C 
ATOM     13  CG  GLU B   2      35.718  59.637  34.549  0.00  0.00    +0.000 C 
ATOM     14  CD  GLU B   2      35.678  60.340  35.879  0.00  0.00    +0.000 C 
ATOM     15  OE2 GLU B   2      35.356  59.688  36.896  0.00  0.00    +0.000 OA
ATOM     16  OE1 GLU B   2      35.973  61.554  35.899  0.00  0.00    +0.000 OA
ATOM     17  H   VAL B   1      36.175  62.693  29.332  0.00  0.00    +0.000 HD
ATOM     18  H   VAL B   1      35.453  62.278  30.775  0.00  0.00    +0.000 HD
ATOM     19  H   VAL B   1      34.815  61.731  29.337  0.00  0.00    +0.000 HD
ATOM     20  H   GLU B   2      35.124  60.891  32.047  0.00  0.00    +0.000 HD
TER 
REMARK  Name = /data/user_data/xianyang/t3-aimnet-affinity-balanced/L1/Q8N1Q1/pocket.pdb
REMARK                            x       y       z     vdW  Elec       q    Type
REMARK                         _______ _______ _______ _____ _____    ______ ____
ATOM      1  N   ARG C   1      46.878  67.132  32.618  0.00  0.00    +0.000 N 
ATOM      2  CA  ARG C   1      45.432  67.035  32.454  0.00  0.00    +0.000 C 
ATOM      3  C   ARG C   1      44.657  67.459  33.698  0.00  0.00    +0.000 C 
ATOM      4  O   ARG C   1      43.762  68.301  33.615  0.00  0.00    +0.000 OA
ATOM      5  CB  ARG C   1      45.058  65.595  32.080  0.00  0.00    +0.000 C 
ATOM      6  CG  ARG C   1      43.788  65.457  31.253  0.00  0.00    +0.000 C 
ATOM      7  CD  ARG C   1      42.556  65.849  32.032  0.00  0.00    +0.000 C 
ATOM      8  NE  ARG C   1      41.826  66.935  31.388  0.00  0.00    +0.000 N 
ATOM      9  CZ  ARG C   1      40.721  67.482  31.885  0.00  0.00    +0.000 C 
ATOM     10  NH2 ARG C   1      40.222  67.039  33.032  0.00  0.00    +0.000 N 
ATOM     11  NH1 ARG C   1      40.117  68.473  31.242  0.00  0.00    +0.000 N 
ATOM     12  N   GLN C   2      44.983  66.869  34.846  0.00  0.00    +0.000 N 
ATOM     13  CA  GLN C   2      44.280  67.213  36.081  0.00  0.00    +0.000 C 
ATOM     14  C   GLN C   2      45.072  66.882  37.341  0.00  0.00    +0.000 C 
ATOM     15  O   GLN C   2      46.092  66.190  37.301  0.00  0.00    +0.000 OA
ATOM     16  CB  GLN C   2      42.928  66.490  36.156  0.00  0.00    +0.000 C 
ATOM     17  CG  GLN C   2      43.021  65.061  36.684  0.00  0.00    +0.000 C 
ATOM     18  CD  GLN C   2      41.757  64.603  37.400  0.00  0.00    +0.000 C 
ATOM     19  OE1 GLN C   2      41.823  63.828  38.350  0.00  0.00    +0.000 OA
ATOM     20  NE2 GLN C   2      40.601  65.069  36.938  0.00  0.00    +0.000 N 
ATOM     21  H   ARG C   1      47.338  66.837  31.757  0.00  0.00    +0.000 HD
ATOM     22  H   ARG C   1      47.174  66.530  33.386  0.00  0.00    +0.000 HD
ATOM     23  H   ARG C   1      47.133  68.098  32.826  0.00  0.00    +0.000 HD
ATOM     24  H   ARG C   1      42.172  67.284  30.535  0.00  0.00    +0.000 HD
ATOM     25  H   ARG C   1      39.404  67.443  33.402  0.00  0.00    +0.000 HD
ATOM     26  H   ARG C   1      40.670  66.306  33.513  0.00  0.00    +0.000 HD
ATOM     27  H   ARG C   1      40.485  68.804  30.391  0.00  0.00    +0.000 HD
ATOM     28  H   ARG C   1      39.301  68.877  31.616  0.00  0.00    +0.000 HD
ATOM     29  H   GLN C   2      45.702  66.197  34.864  0.00  0.00    +0.000 HD
ATOM     30  H   GLN C   2      40.591  65.689  36.174  0.00  0.00    +0.000 HD
ATOM     31  H   GLN C   2      39.755  64.794  37.360  0.00  0.00    +0.000 HD
TER 
REMARK  Name = /data/user_data/xianyang/t3-aimnet-affinity-balanced/L1/Q8N1Q1/pocket.pdb
REMARK                            x       y       z     vdW  Elec       q    Type
REMARK                         _______ _______ _______ _____ _____    ______ ____
ATOM      1  N   HIS D   1      44.226  65.825  41.556  0.00  0.00    +0.000 N 
ATOM      2  CA  HIS D   1      43.249  65.473  42.582  0.00  0.00    +0.000 C 
ATOM      3  C   HIS D   1      43.978  64.905  43.799  0.00  0.00    +0.000 C 
ATOM      4  O   HIS D   1      45.204  64.758  43.785  0.00  0.00    +0.000 OA
ATOM      5  CB  HIS D   1      42.222  64.466  42.056  0.00  0.00    +0.000 C 
ATOM      6  CG  HIS D   1      42.820  63.176  41.591  0.00  0.00    +0.000 C 
ATOM      7  ND1 HIS D   1      43.179  62.953  40.279  0.00  0.00    +0.000 NA
ATOM      8  CD2 HIS D   1      43.126  62.041  42.264  0.00  0.00    +0.000 C 
ATOM      9  CE1 HIS D   1      43.678  61.735  40.164  0.00  0.00    +0.000 C 
ATOM     10  NE2 HIS D   1      43.658  61.162  41.354  0.00  0.00    +0.000 NA
ATOM     11  H   HIS D   1      43.742  66.205  40.742  0.00  0.00    +0.000 HD
ATOM     12  H   HIS D   1      44.748  64.992  41.284  0.00  0.00    +0.000 HD
ATOM     13  H   HIS D   1      44.870  66.524  41.926  0.00  0.00    +0.000 HD
TER 
REMARK  Name = /data/user_data/xianyang/t3-aimnet-affinity-balanced/L1/Q8N1Q1/pocket.pdb
REMARK                            x       y       z     vdW  Elec       q    Type
REMARK                         _______ _______ _______ _____ _____    ______ ____
ATOM      1  N   HIS E   1      43.889  62.044  47.348  0.00  0.00    +0.000 N 
ATOM      2  CA  HIS E   1      43.349  60.875  48.025  0.00  0.00    +0.000 C 
ATOM      3  C   HIS E   1      43.724  60.982  49.495  0.00  0.00    +0.000 C 
ATOM      4  O   HIS E   1      44.828  61.422  49.837  0.00  0.00    +0.000 OA
ATOM      5  CB  HIS E   1      43.949  59.592  47.445  0.00  0.00    +0.000 C 
ATOM      6  CG  HIS E   1      43.573  59.339  46.019  0.00  0.00    +0.000 A 
ATOM      7  ND1 HIS E   1      42.407  58.700  45.659  0.00  0.00    +0.000 N 
ATOM      8  CD2 HIS E   1      44.196  59.667  44.863  0.00  0.00    +0.000 A 
ATOM      9  CE1 HIS E   1      42.327  58.644  44.342  0.00  0.00    +0.000 A 
ATOM     10  NE2 HIS E   1      43.400  59.225  43.834  0.00  0.00    +0.000 NA
ATOM     11  H   HIS E   1      43.654  62.002  46.356  0.00  0.00    +0.000 HD
ATOM     12  H   HIS E   1      44.903  62.061  47.456  0.00  0.00    +0.000 HD
ATOM     13  H   HIS E   1      43.489  62.889  47.757  0.00  0.00    +0.000 HD
ATOM     14  H   HIS E   1      41.738  58.341  46.286  0.00  0.00    +0.000 HD
TER 
REMARK  Name = /data/user_data/xianyang/t3-aimnet-affinity-balanced/L1/Q8N1Q1/pocket.pdb
REMARK                            x       y       z     vdW  Elec       q    Type
REMARK                         _______ _______ _______ _____ _____    ______ ____
ATOM      1  N   GLU F   1      47.400  56.195  48.876  0.00  0.00    +0.000 N 
ATOM      2  CA  GLU F   1      47.027  55.014  48.106  0.00  0.00    +0.000 C 
ATOM      3  C   GLU F   1      48.220  54.075  48.092  0.00  0.00    +0.000 C 
ATOM      4  O   GLU F   1      48.097  52.895  48.432  0.00  0.00    +0.000 OA
ATOM      5  CB  GLU F   1      46.612  55.408  46.686  0.00  0.00    +0.000 C 
ATOM      6  CG  GLU F   1      45.350  56.270  46.666  0.00  0.00    +0.000 C 
ATOM      7  CD  GLU F   1      44.463  55.984  45.470  0.00  0.00    +0.000 C 
ATOM      8  OE1 GLU F   1      44.860  56.307  44.334  0.00  0.00    +0.000 OA
ATOM      9  OE2 GLU F   1      43.365  55.428  45.671  0.00  0.00    +0.000 OA
ATOM     10  H   GLU F   1      46.615  56.846  48.902  0.00  0.00    +0.000 HD
ATOM     11  H   GLU F   1      48.202  56.648  48.437  0.00  0.00    +0.000 HD
ATOM     12  H   GLU F   1      47.644  55.918  49.827  0.00  0.00    +0.000 HD
TER 
REMARK  Name = /data/user_data/xianyang/t3-aimnet-affinity-balanced/L1/Q8N1Q1/pocket.pdb
REMARK                            x       y       z     vdW  Elec       q    Type
REMARK                         _______ _______ _______ _____ _____    ______ ____
ATOM      1  N   HIS G   1      47.823  63.353  43.186  0.00  0.00    +0.000 N 
ATOM      2  CA  HIS G   1      48.070  62.766  41.874  0.00  0.00    +0.000 C 
ATOM      3  C   HIS G   1      47.996  63.830  40.787  0.00  0.00    +0.000 C 
ATOM      4  O   HIS G   1      47.068  64.635  40.759  0.00  0.00    +0.000 OA
ATOM      5  CB  HIS G   1      47.056  61.656  41.575  0.00  0.00    +0.000 C 
ATOM      6  CG  HIS G   1      47.280  60.408  42.370  0.00  0.00    +0.000 C 
ATOM      7  ND1 HIS G   1      46.308  59.446  42.537  0.00  0.00    +0.000 NA
ATOM      8  CD2 HIS G   1      48.374  59.956  43.030  0.00  0.00    +0.000 C 
ATOM      9  CE1 HIS G   1      46.791  58.456  43.266  0.00  0.00    +0.000 C 
ATOM     10  NE2 HIS G   1      48.043  58.740  43.579  0.00  0.00    +0.000 NA
ATOM     11  H   HIS G   1      48.508  64.088  43.364  0.00  0.00    +0.000 HD
ATOM     12  H   HIS G   1      47.905  62.631  43.902  0.00  0.00    +0.000 HD
ATOM     13  H   HIS G   1      46.884  63.750  43.209  0.00  0.00    +0.000 HD
TER 
REMARK  Name = /data/user_data/xianyang/t3-aimnet-affinity-balanced/L1/Q8N1Q1/pocket.pdb
REMARK                            x       y       z     vdW  Elec       q    Type
REMARK                         _______ _______ _______ _____ _____    ______ ____
ATOM      1  N   VAL H   1      47.861  63.994  36.841  0.00  0.00    +0.000 N 
ATOM      2  CA  VAL H   1      47.583  63.194  35.660  0.00  0.00    +0.000 C 
ATOM      3  C   VAL H   1      47.988  63.833  34.332  0.00  0.00    +0.000 C 
ATOM      4  O   VAL H   1      47.600  64.961  34.036  0.00  0.00    +0.000 OA
ATOM      5  CB  VAL H   1      46.070  62.868  35.611  0.00  0.00    +0.000 C 
ATOM      6  CG1 VAL H   1      45.780  61.832  34.546  0.00  0.00    +0.000 C 
ATOM      7  CG2 VAL H   1      45.602  62.387  36.981  0.00  0.00    +0.000 C 
ATOM      8  H   VAL H   1      48.857  64.211  36.878  0.00  0.00    +0.000 HD
ATOM      9  H   VAL H   1      47.596  63.471  37.676  0.00  0.00    +0.000 HD
ATOM     10  H   VAL H   1      47.325  64.861  36.798  0.00  0.00    +0.000 HD
TER 
REMARK  Name = /data/user_data/xianyang/t3-aimnet-affinity-balanced/L1/Q8N1Q1/pocket.pdb
REMARK                            x       y       z     vdW  Elec       q    Type
REMARK                         _______ _______ _______ _____ _____    ______ ____
ATOM      1  N   PHE I   1      42.786  62.148  25.392  0.00  0.00    +0.000 N 
ATOM      2  CA  PHE I   1      43.033  61.460  26.652  0.00  0.00    +0.000 C 
ATOM      3  C   PHE I   1      42.355  60.095  26.641  0.00  0.00    +0.000 C 
ATOM      4  O   PHE I   1      42.930  59.110  27.096  0.00  0.00    +0.000 OA
ATOM      5  CB  PHE I   1      42.504  62.287  27.831  0.00  0.00    +0.000 C 
ATOM      6  CG  PHE I   1      42.766  61.666  29.176  0.00  0.00    +0.000 A 
ATOM      7  CD1 PHE I   1      42.068  60.531  29.588  0.00  0.00    +0.000 A 
ATOM      8  CD2 PHE I   1      43.738  62.193  30.019  0.00  0.00    +0.000 A 
ATOM      9  CE1 PHE I   1      42.334  59.934  30.817  0.00  0.00    +0.000 A 
ATOM     10  CE2 PHE I   1      44.011  61.603  31.249  0.00  0.00    +0.000 A 
ATOM     11  CZ  PHE I   1      43.310  60.469  31.649  0.00  0.00    +0.000 A 
ATOM     12  H   PHE I   1      43.144  61.584  24.621  0.00  0.00    +0.000 HD
ATOM     13  H   PHE I   1      43.258  63.052  25.400  0.00  0.00    +0.000 HD
ATOM     14  H   PHE I   1      41.783  62.290  25.273  0.00  0.00    +0.000 HD
TER 
REMARK  Name = /data/user_data/xianyang/t3-aimnet-affinity-balanced/L1/Q8N1Q1/pocket.pdb
REMARK                            x       y       z     vdW  Elec       q    Type
REMARK                         _______ _______ _______ _____ _____    ______ ____
ATOM      1  N   VAL J   1      51.106  59.341  35.672  0.00  0.00    +0.000 N 
ATOM      2  CA  VAL J   1      50.601  60.003  36.870  0.00  0.00    +0.000 C 
ATOM      3  C   VAL J   1      51.708  60.198  37.890  0.00  0.00    +0.000 C 
ATOM      4  O   VAL J   1      52.364  59.243  38.314  0.00  0.00    +0.000 OA
ATOM      5  CB  VAL J   1      49.464  59.217  37.549  0.00  0.00    +0.000 C 
ATOM      6  CG2 VAL J   1      49.042  59.930  38.831  0.00  0.00    +0.000 C 
ATOM      7  CG1 VAL J   1      48.269  59.096  36.605  0.00  0.00    +0.000 C 
ATOM      8  H   VAL J   1      50.345  59.222  35.003  0.00  0.00    +0.000 HD
ATOM      9  H   VAL J   1      51.485  58.428  35.922  0.00  0.00    +0.000 HD
ATOM     10  H   VAL J   1      51.841  59.911  35.253  0.00  0.00    +0.000 HD
TER 
REMARK  Name = /data/user_data/xianyang/t3-aimnet-affinity-balanced/L1/Q8N1Q1/pocket.pdb
REMARK                            x       y       z     vdW  Elec       q    Type
REMARK                         _______ _______ _______ _____ _____    ______ ____
ATOM      1  N   SER K   1      47.870  51.137  36.770  0.00  0.00    +0.000 N 
ATOM      2  CA  SER K   1      46.577  51.548  36.240  0.00  0.00    +0.000 C 
ATOM      3  C   SER K   1      45.958  52.708  37.002  0.00  0.00    +0.000 C 
ATOM      4  O   SER K   1      46.518  53.204  37.978  0.00  0.00    +0.000 OA
ATOM      5  CB  SER K   1      45.611  50.374  36.323  0.00  0.00    +0.000 C 
ATOM      6  OG  SER K   1      45.257  50.141  37.683  0.00  0.00    +0.000 OA
ATOM      7  N   LEU K   2      44.793  53.138  36.537  0.00  0.00    +0.000 N 
ATOM      8  CA  LEU K   2      44.052  54.198  37.209  0.00  0.00    +0.000 C 
ATOM      9  C   LEU K   2      43.599  53.525  38.504  0.00  0.00    +0.000 C 
ATOM     10  O   LEU K   2      43.292  52.329  38.497  0.00  0.00    +0.000 OA
ATOM     11  CB  LEU K   2      42.826  54.598  36.383  0.00  0.00    +0.000 C 
ATOM     12  CG  LEU K   2      43.054  55.168  34.981  0.00  0.00    +0.000 C 
ATOM     13  CD1 LEU K   2      41.702  55.349  34.288  0.00  0.00    +0.000 C 
ATOM     14  CD2 LEU K   2      43.804  56.497  35.075  0.00  0.00    +0.000 C 
ATOM     15  N   THR K   3      43.551  54.270  39.606  0.00  0.00    +0.000 N 
ATOM     16  CA  THR K   3      43.144  53.690  40.885  0.00  0.00    +0.000 C 
ATOM     17  C   THR K   3      41.645  53.795  41.143  0.00  0.00    +0.000 C 
ATOM     18  O   THR K   3      41.179  53.535  42.251  0.00  0.00    +0.000 OA
ATOM     19  CB  THR K   3      43.892  54.341  42.068  0.00  0.00    +0.000 C 
ATOM     20  OG1 THR K   3      43.547  55.730  42.150  0.00  0.00    +0.000 OA
ATOM     21  CG2 THR K   3      45.404  54.199  41.882  0.00  0.00    +0.000 C 
ATOM     22  N   VAL K   4      40.902  54.182  40.112  0.00  0.00    +0.000 N 
ATOM     23  CA  VAL K   4      39.447  54.302  40.181  0.00  0.00    +0.000 C 
ATOM     24  C   VAL K   4      38.911  53.828  38.827  0.00  0.00    +0.000 C 
ATOM     25  O   VAL K   4      39.631  53.857  37.820  0.00  0.00    +0.000 OA
ATOM     26  CB  VAL K   4      38.982  55.774  40.386  0.00  0.00    +0.000 C 
ATOM     27  CG2 VAL K   4      39.583  56.353  41.657  0.00  0.00    +0.000 C 
ATOM     28  CG1 VAL K   4      39.372  56.613  39.186  0.00  0.00    +0.000 C 
ATOM     29  N   PRO K   5      37.644  53.383  38.777  0.00  0.00    +0.000 N 
ATOM     30  CA  PRO K   5      37.060  52.919  37.507  0.00  0.00    +0.000 C 
ATOM     31  C   PRO K   5      37.257  54.022  36.464  0.00  0.00    +0.000 C 
ATOM     32  O   PRO K   5      37.136  55.201  36.785  0.00  0.00    +0.000 OA
ATOM     33  CB  PRO K   5      35.593  52.713  37.862  0.00  0.00    +0.000 C 
ATOM     34  CG  PRO K   5      35.654  52.318  39.322  0.00  0.00    +0.000 C 
ATOM     35  CD  PRO K   5      36.675  53.272  39.883  0.00  0.00    +0.000 C 
ATOM     36  N   PRO K   6      37.494  53.662  35.190  0.00  0.00    +0.000 N 
ATOM     37  CA  PRO K   6      37.610  52.332  34.582  0.00  0.00    +0.000 C 
ATOM     38  C   PRO K   6      38.823  51.458  34.910  0.00  0.00    +0.000 C 
ATOM     39  O   PRO K   6      38.977  50.386  34.328  0.00  0.00    +0.000 OA
ATOM     40  CB  PRO K   6      37.496  52.634  33.086  0.00  0.00    +0.000 C 
ATOM     41  CG  PRO K   6      38.192  53.942  32.977  0.00  0.00    +0.000 C 
ATOM     42  CD  PRO K   6      37.645  54.710  34.163  0.00  0.00    +0.000 C 
ATOM     43  H   SER K   1      48.232  50.359  36.219  0.00  0.00    +0.000 HD
ATOM     44  H   SER K   1      47.762  50.844  37.741  0.00  0.00    +0.000 HD
ATOM     45  H   SER K   1      48.522  51.920  36.721  0.00  0.00    +0.000 HD
ATOM     46  H   SER K   1      46.055  49.937  38.195  0.00  0.00    +0.000 HD
ATOM     47  H   LEU K   2      44.421  52.733  35.721  0.00  0.00    +0.000 HD
ATOM     48  H   THR K   3      43.793  55.223  39.559  0.00  0.00    +0.000 HD
ATOM     49  H   THR K   3      43.807  56.177  41.329  0.00  0.00    +0.000 HD
ATOM     50  H   VAL K   4      41.352  54.398  39.263  0.00  0.00    +0.000 HD
TER 
REMARK  Name = /data/user_data/xianyang/t3-aimnet-affinity-balanced/L1/Q8N1Q1/pocket.pdb
REMARK                            x       y       z     vdW  Elec       q    Type
REMARK                         _______ _______ _______ _____ _____    ______ ____
ATOM      1  N   VAL L   1      48.797  53.280  32.866  0.00  0.00    +0.000 N 
ATOM      2  CA  VAL L   1      49.547  54.272  33.614  0.00  0.00    +0.000 C 
ATOM      3  C   VAL L   1      50.988  53.940  33.951  0.00  0.00    +0.000 C 
ATOM      4  O   VAL L   1      51.298  52.858  34.454  0.00  0.00    +0.000 OA
ATOM      5  CB  VAL L   1      48.852  54.601  34.950  0.00  0.00    +0.000 C 
ATOM      6  CG2 VAL L   1      49.611  55.714  35.665  0.00  0.00    +0.000 C 
ATOM      7  CG1 VAL L   1      47.392  54.984  34.705  0.00  0.00    +0.000 C 
ATOM      8  H   VAL L   1      49.277  53.081  31.989  0.00  0.00    +0.000 HD
ATOM      9  H   VAL L   1      47.863  53.638  32.668  0.00  0.00    +0.000 HD
ATOM     10  H   VAL L   1      48.724  52.424  33.415  0.00  0.00    +0.000 HD
TER 
REMARK  Name = /data/user_data/xianyang/t3-aimnet-affinity-balanced/L1/Q8N1Q1/pocket.pdb
REMARK                            x       y       z     vdW  Elec       q    Type
REMARK                         _______ _______ _______ _____ _____    ______ ____
ATOM      1  N   TRP M   1      53.365  54.874  36.436  0.00  0.00    +0.000 N 
ATOM      2  CA  TRP M   1      53.406  55.540  37.731  0.00  0.00    +0.000 C 
ATOM      3  C   TRP M   1      54.779  56.075  38.100  0.00  0.00    +0.000 C 
ATOM      4  O   TRP M   1      55.796  55.407  37.911  0.00  0.00    +0.000 OA
ATOM      5  CB  TRP M   1      52.909  54.605  38.833  0.00  0.00    +0.000 C 
ATOM      6  CG  TRP M   1      51.420  54.565  38.901  0.00  0.00    +0.000 C 
ATOM      7  CD1 TRP M   1      50.592  53.660  38.301  0.00  0.00    +0.000 C 
ATOM      8  CD2 TRP M   1      50.575  55.526  39.537  0.00  0.00    +0.000 C 
ATOM      9  NE1 TRP M   1      49.277  54.001  38.521  0.00  0.00    +0.000 NA
ATOM     10  CE2 TRP M   1      49.238  55.144  39.275  0.00  0.00    +0.000 C 
ATOM     11  CE3 TRP M   1      50.816  56.677  40.301  0.00  0.00    +0.000 C 
ATOM     12  CZ2 TRP M   1      48.143  55.877  39.751  0.00  0.00    +0.000 C 
ATOM     13  CZ3 TRP M   1      49.726  57.405  40.776  0.00  0.00    +0.000 C 
ATOM     14  CH2 TRP M   1      48.406  57.001  40.497  0.00  0.00    +0.000 C 
ATOM     15  H   TRP M   1      53.700  55.513  35.715  0.00  0.00    +0.000 HD
ATOM     16  H   TRP M   1      52.406  54.597  36.226  0.00  0.00    +0.000 HD
ATOM     17  H   TRP M   1      53.961  54.046  36.460  0.00  0.00    +0.000 HD
TER 
