REMARK  Name = /home/xianyang/aimnet2_score_pipelines/work/L1234-fixed-receptor-eint-20260921/L4/P42226/prepared.pdb
REMARK                            x       y       z     vdW  Elec       q    Type
REMARK                         _______ _______ _______ _____ _____    ______ ____
ATOM      1  CH3 ACE A   1       2.818 -42.857  -5.546  0.00  0.00    +0.000 C 
ATOM      2  C   ACE A   1       3.366 -43.116  -6.940  0.00  0.00    +0.000 C 
ATOM      3  O   ACE A   1       2.689 -43.708  -7.776  0.00  0.00    +0.000 OA
ATOM      4  N   GLY A   2       4.557 -42.589  -7.191  0.00  0.00    +0.000 N 
ATOM      5  H   GLY A   2       5.044 -42.121  -6.442  0.00  0.00    +0.000 HD
ATOM      6  CA  GLY A   2       5.222 -42.707  -8.482  0.00  0.00    +0.000 C 
ATOM      7  C   GLY A   2       4.833 -41.648  -9.502  0.00  0.00    +0.000 C 
ATOM      8  O   GLY A   2       5.465 -41.534 -10.558  0.00  0.00    +0.000 OA
ATOM      9  N   ARG A   3       3.786 -40.875  -9.212  0.00  0.00    +0.000 N 
ATOM     10  H   ARG A   3       3.341 -40.987  -8.314  0.00  0.00    +0.000 HD
ATOM     11  CA  ARG A   3       3.310 -39.848 -10.130  0.00  0.00    +0.000 C 
ATOM     12  C   ARG A   3       3.740 -38.457  -9.668  0.00  0.00    +0.000 C 
ATOM     13  O   ARG A   3       4.292 -38.319  -8.583  0.00  0.00    +0.000 OA
ATOM     14  CB  ARG A   3       1.785 -39.953 -10.252  0.00  0.00    +0.000 C 
ATOM     15  CG  ARG A   3       1.324 -41.357 -10.607  0.00  0.00    +0.000 C 
ATOM     16  CD  ARG A   3       1.695 -41.725 -12.040  0.00  0.00    +0.000 C 
ATOM     17  NE  ARG A   3       2.004 -43.147 -12.212  0.00  0.00    +0.000 N 
ATOM     18  HE  ARG A   3       2.977 -43.405 -12.240  0.00  0.00    +0.000 HD
ATOM     19  CZ  ARG A   3       1.093 -44.114 -12.286  0.00  0.00    +0.000 C 
ATOM     20  NH1 ARG A   3      -0.199 -43.831 -12.164  0.00  0.00    +0.000 N 
ATOM     21 HH11 ARG A   3      -0.514 -42.878 -12.233  0.00  0.00    +0.000 HD
ATOM     22 HH12 ARG A   3      -0.892 -44.566 -12.142  0.00  0.00    +0.000 HD
ATOM     23  NH2 ARG A   3       1.469 -45.376 -12.442  0.00  0.00    +0.000 N 
ATOM     24 HH21 ARG A   3       0.761 -46.087 -12.404  0.00  0.00    +0.000 HD
ATOM     25 HH22 ARG A   3       2.445 -45.611 -12.430  0.00  0.00    +0.000 HD
ATOM     26  N   GLY A   4       3.538 -37.451 -10.510  0.00  0.00    +0.000 N 
ATOM     27  H   GLY A   4       3.129 -37.643 -11.410  0.00  0.00    +0.000 HD
ATOM     28  CA  GLY A   4       3.861 -36.069 -10.176  0.00  0.00    +0.000 C 
ATOM     29  C   GLY A   4       2.593 -35.237 -10.103  0.00  0.00    +0.000 C 
ATOM     30  O   GLY A   4       2.486 -34.166 -10.717  0.00  0.00    +0.000 OA
ATOM     31  N   NME A   5       1.598 -35.765  -9.394  0.00  0.00    +0.000 N 
ATOM     32  H   NME A   5       1.770 -36.620  -8.890  0.00  0.00    +0.000 HD
ATOM     33  C   NME A   5       0.296 -35.125  -9.276  0.00  0.00    +0.000 C 
TER 
REMARK  Name = /home/xianyang/aimnet2_score_pipelines/work/L1234-fixed-receptor-eint-20260921/L4/P42226/prepared.pdb
REMARK                            x       y       z     vdW  Elec       q    Type
REMARK                         _______ _______ _______ _____ _____    ______ ____
ATOM      1  CH3 ACE B   1     -10.218 -50.044 -15.132  0.00  0.00    +0.000 C 
ATOM      2  C   ACE B   1      -8.750 -50.320 -14.812  0.00  0.00    +0.000 C 
ATOM      3  O   ACE B   1      -7.851 -49.787 -15.469  0.00  0.00    +0.000 OA
ATOM      4  N   SER B   2      -8.509 -51.129 -13.774  0.00  0.00    +0.000 N 
ATOM      5  H   SER B   2      -9.275 -51.600 -13.321  0.00  0.00    +0.000 HD
ATOM      6  CA  SER B   2      -7.142 -51.476 -13.391  0.00  0.00    +0.000 C 
ATOM      7  C   SER B   2      -6.512 -52.357 -14.445  0.00  0.00    +0.000 C 
ATOM      8  O   SER B   2      -7.212 -53.171 -15.040  0.00  0.00    +0.000 OA
ATOM      9  CB  SER B   2      -7.122 -52.201 -12.040  0.00  0.00    +0.000 C 
ATOM     10  OG  SER B   2      -7.518 -53.564 -12.087  0.00  0.00    +0.000 OA
ATOM     11  HG  SER B   2      -7.640 -53.910 -11.190  0.00  0.00    +0.000 HD
ATOM     12  N   LYS B   3      -5.195 -52.271 -14.631  0.00  0.00    +0.000 N 
ATOM     13  H   LYS B   3      -4.681 -51.564 -14.129  0.00  0.00    +0.000 HD
ATOM     14  CA  LYS B   3      -4.507 -53.161 -15.569  0.00  0.00    +0.000 C 
ATOM     15  C   LYS B   3      -4.736 -54.657 -15.218  0.00  0.00    +0.000 C 
ATOM     16  O   LYS B   3      -4.701 -55.512 -16.104  0.00  0.00    +0.000 OA
ATOM     17  CB  LYS B   3      -3.010 -52.850 -15.618  0.00  0.00    +0.000 C 
ATOM     18  CG  LYS B   3      -2.676 -51.664 -16.491  0.00  0.00    +0.000 C 
ATOM     19  CD  LYS B   3      -1.185 -51.595 -16.751  0.00  0.00    +0.000 C 
ATOM     20  CE  LYS B   3      -0.699 -50.184 -16.963  0.00  0.00    +0.000 C 
ATOM     21  NZ  LYS B   3      -0.805 -49.371 -15.715  0.00  0.00    +0.000 N 
ATOM     22  HZ1 LYS B   3      -0.285 -49.802 -14.961  0.00  0.00    +0.000 HD
ATOM     23  HZ2 LYS B   3      -1.769 -49.282 -15.406  0.00  0.00    +0.000 HD
ATOM     24  HZ3 LYS B   3      -0.444 -48.435 -15.844  0.00  0.00    +0.000 HD
ATOM     25  N   GLN B   4      -5.000 -54.950 -13.929  0.00  0.00    +0.000 N 
ATOM     26  H   GLN B   4      -5.092 -54.182 -13.289  0.00  0.00    +0.000 HD
ATOM     27  CA  GLN B   4      -5.293 -56.288 -13.418  0.00  0.00    +0.000 C 
ATOM     28  C   GLN B   4      -6.617 -56.848 -13.998  0.00  0.00    +0.000 C 
ATOM     29  O   GLN B   4      -6.759 -58.058 -14.204  0.00  0.00    +0.000 OA
ATOM     30  CB  GLN B   4      -5.359 -56.226 -11.881  0.00  0.00    +0.000 C 
ATOM     31  CG  GLN B   4      -5.526 -57.586 -11.202  0.00  0.00    +0.000 C 
ATOM     32  CD  GLN B   4      -6.526 -57.580 -10.065  0.00  0.00    +0.000 C 
ATOM     33  OE1 GLN B   4      -7.122 -56.546  -9.715  0.00  0.00    +0.000 OA
ATOM     34  NE2 GLN B   4      -6.733 -58.749  -9.468  0.00  0.00    +0.000 N 
ATOM     35 HE21 GLN B   4      -6.273 -59.578  -9.795  0.00  0.00    +0.000 HD
ATOM     36 HE22 GLN B   4      -7.410 -58.754  -8.726  0.00  0.00    +0.000 HD
ATOM     37  N   NME B   5      -7.575 -55.958 -14.262  0.00  0.00    +0.000 N 
ATOM     38  H   NME B   5      -7.382 -54.974 -14.111  0.00  0.00    +0.000 HD
ATOM     39  C   NME B   5      -8.871 -56.306 -14.819  0.00  0.00    +0.000 C 
TER 
REMARK  Name = /home/xianyang/aimnet2_score_pipelines/work/L1234-fixed-receptor-eint-20260921/L4/P42226/prepared.pdb
REMARK                            x       y       z     vdW  Elec       q    Type
REMARK                         _______ _______ _______ _____ _____    ______ ____
ATOM      1  CH3 ACE C   1     -10.739 -51.797 -24.896  0.00  0.00    +0.000 C 
ATOM      2  C   ACE C   1     -10.183 -50.361 -24.737  0.00  0.00    +0.000 C 
ATOM      3  O   ACE C   1      -9.003 -50.113 -25.014  0.00  0.00    +0.000 OA
ATOM      4  N   LEU C   2     -11.017 -49.425 -24.290  0.00  0.00    +0.000 N 
ATOM      5  H   LEU C   2     -11.956 -49.676 -24.025  0.00  0.00    +0.000 HD
ATOM      6  CA  LEU C   2     -10.574 -48.051 -24.090  0.00  0.00    +0.000 C 
ATOM      7  C   LEU C   2     -10.515 -47.674 -22.613  0.00  0.00    +0.000 C 
ATOM      8  O   LEU C   2     -11.523 -47.764 -21.917  0.00  0.00    +0.000 OA
ATOM      9  CB  LEU C   2     -11.488 -47.102 -24.847  0.00  0.00    +0.000 C 
ATOM     10  CG  LEU C   2     -11.424 -47.274 -26.342  0.00  0.00    +0.000 C 
ATOM     11  CD1 LEU C   2     -12.561 -46.545 -27.005  0.00  0.00    +0.000 C 
ATOM     12  CD2 LEU C   2     -10.096 -46.786 -26.881  0.00  0.00    +0.000 C 
ATOM     13  N   ARG C   3      -9.345 -47.236 -22.134  0.00  0.00    +0.000 N 
ATOM     14  H   ARG C   3      -8.561 -47.128 -22.772  0.00  0.00    +0.000 HD
ATOM     15  CA  ARG C   3      -9.188 -46.841 -20.736  0.00  0.00    +0.000 C 
ATOM     16  C   ARG C   3      -8.380 -45.550 -20.551  0.00  0.00    +0.000 C 
ATOM     17  O   ARG C   3      -7.807 -45.021 -21.508  0.00  0.00    +0.000 OA
ATOM     18  CB  ARG C   3      -8.595 -47.989 -19.921  0.00  0.00    +0.000 C 
ATOM     19  CG  ARG C   3      -7.293 -48.510 -20.474  0.00  0.00    +0.000 C 
ATOM     20  CD  ARG C   3      -6.585 -49.343 -19.434  0.00  0.00    +0.000 C 
ATOM     21  NE  ARG C   3      -5.484 -48.603 -18.827  0.00  0.00    +0.000 N 
ATOM     22  HE  ARG C   3      -5.719 -47.782 -18.282  0.00  0.00    +0.000 HD
ATOM     23  CZ  ARG C   3      -4.208 -48.960 -18.905  0.00  0.00    +0.000 C 
ATOM     24  NH1 ARG C   3      -3.859 -50.074 -19.539  0.00  0.00    +0.000 N 
ATOM     25 HH11 ARG C   3      -4.585 -50.561 -20.034  0.00  0.00    +0.000 HD
ATOM     26 HH12 ARG C   3      -2.958 -50.171 -19.973  0.00  0.00    +0.000 HD
ATOM     27  NH2 ARG C   3      -3.272 -48.224 -18.323  0.00  0.00    +0.000 N 
ATOM     28 HH21 ARG C   3      -2.337 -48.302 -18.662  0.00  0.00    +0.000 HD
ATOM     29 HH22 ARG C   3      -3.588 -47.395 -17.833  0.00  0.00    +0.000 HD
ATOM     30  N   PHE C   4      -8.356 -45.029 -19.325  0.00  0.00    +0.000 N 
ATOM     31  H   PHE C   4      -8.824 -45.500 -18.568  0.00  0.00    +0.000 HD
ATOM     32  CA  PHE C   4      -7.656 -43.792 -19.043  0.00  0.00    +0.000 C 
ATOM     33  C   PHE C   4      -6.229 -44.013 -18.625  0.00  0.00    +0.000 C 
ATOM     34  O   PHE C   4      -5.944 -44.907 -17.827  0.00  0.00    +0.000 OA
ATOM     35  CB  PHE C   4      -8.424 -42.945 -18.020  0.00  0.00    +0.000 C 
ATOM     36  CG  PHE C   4      -9.658 -42.328 -18.630  0.00  0.00    +0.000 A 
ATOM     37  CD1 PHE C   4      -9.557 -41.450 -19.696  0.00  0.00    +0.000 A 
ATOM     38  CD2 PHE C   4     -10.916 -42.642 -18.153  0.00  0.00    +0.000 A 
ATOM     39  CE1 PHE C   4     -10.691 -40.915 -20.281  0.00  0.00    +0.000 A 
ATOM     40  CE2 PHE C   4     -12.048 -42.113 -18.744  0.00  0.00    +0.000 A 
ATOM     41  CZ  PHE C   4     -11.929 -41.250 -19.804  0.00  0.00    +0.000 A 
ATOM     42  N   SER C   5      -5.330 -43.193 -19.174  0.00  0.00    +0.000 N 
ATOM     43  H   SER C   5      -5.685 -42.441 -19.752  0.00  0.00    +0.000 HD
ATOM     44  CA  SER C   5      -3.907 -43.210 -18.886  0.00  0.00    +0.000 C 
ATOM     45  C   SER C   5      -3.688 -42.904 -17.421  0.00  0.00    +0.000 C 
ATOM     46  O   SER C   5      -4.327 -42.009 -16.880  0.00  0.00    +0.000 OA
ATOM     47  CB  SER C   5      -3.193 -42.166 -19.737  0.00  0.00    +0.000 C 
ATOM     48  OG  SER C   5      -1.876 -41.915 -19.270  0.00  0.00    +0.000 OA
ATOM     49  HG  SER C   5      -1.932 -41.068 -18.804  0.00  0.00    +0.000 HD
ATOM     50  N   ASP C   6      -2.787 -43.637 -16.784  0.00  0.00    +0.000 N 
ATOM     51  H   ASP C   6      -2.318 -44.365 -17.284  0.00  0.00    +0.000 HD
ATOM     52  CA  ASP C   6      -2.508 -43.441 -15.369  0.00  0.00    +0.000 C 
ATOM     53  C   ASP C   6      -1.401 -42.418 -15.161  0.00  0.00    +0.000 C 
ATOM     54  O   ASP C   6      -1.562 -41.477 -14.390  0.00  0.00    +0.000 OA
ATOM     55  CB  ASP C   6      -2.115 -44.777 -14.718  0.00  0.00    +0.000 C 
ATOM     56  CG  ASP C   6      -3.266 -45.589 -14.200  0.00  0.00    +0.000 C 
ATOM     57  OD1 ASP C   6      -4.418 -45.327 -14.627  0.00  0.00    +0.000 OA
ATOM     58  OD2 ASP C   6      -3.020 -46.492 -13.371  0.00  0.00    +0.000 OA
ATOM     59  N   SER C   7      -0.273 -42.620 -15.843  0.00  0.00    +0.000 N 
ATOM     60  H   SER C   7      -0.247 -43.362 -16.526  0.00  0.00    +0.000 HD
ATOM     61  CA  SER C   7       0.919 -41.807 -15.722  0.00  0.00    +0.000 C 
ATOM     62  C   SER C   7       0.772 -40.447 -16.353  0.00  0.00    +0.000 C 
ATOM     63  O   SER C   7       1.371 -39.492 -15.865  0.00  0.00    +0.000 OA
ATOM     64  CB  SER C   7       2.108 -42.542 -16.327  0.00  0.00    +0.000 C 
ATOM     65  OG  SER C   7       1.803 -43.051 -17.617  0.00  0.00    +0.000 OA
ATOM     66  HG  SER C   7       1.985 -42.375 -18.283  0.00  0.00    +0.000 HD
ATOM     67  N   GLU C   8       0.014 -40.348 -17.443  0.00  0.00    +0.000 N 
ATOM     68  H   GLU C   8      -0.442 -41.172 -17.804  0.00  0.00    +0.000 HD
ATOM     69  CA  GLU C   8      -0.153 -39.069 -18.120  0.00  0.00    +0.000 C 
ATOM     70  C   GLU C   8      -1.480 -38.428 -17.730  0.00  0.00    +0.000 C 
ATOM     71  O   GLU C   8      -2.486 -39.122 -17.623  0.00  0.00    +0.000 OA
ATOM     72  CB  GLU C   8      -0.008 -39.241 -19.636  0.00  0.00    +0.000 C 
ATOM     73  CG  GLU C   8       1.273 -39.972 -20.016  0.00  0.00    +0.000 C 
ATOM     74  CD  GLU C   8       1.510 -40.176 -21.500  0.00  0.00    +0.000 C 
ATOM     75  OE1 GLU C   8       0.648 -39.754 -22.306  0.00  0.00    +0.000 OA
ATOM     76  OE2 GLU C   8       2.562 -40.755 -21.858  0.00  0.00    +0.000 OA
ATOM     77  N   ILE C   9      -1.479 -37.117 -17.456  0.00  0.00    +0.000 N 
ATOM     78  H   ILE C   9      -0.631 -36.587 -17.580  0.00  0.00    +0.000 HD
ATOM     79  CA  ILE C   9      -2.693 -36.417 -17.042  0.00  0.00    +0.000 C 
ATOM     80  C   ILE C   9      -3.649 -36.284 -18.194  0.00  0.00    +0.000 C 
ATOM     81  O   ILE C   9      -3.341 -35.613 -19.179  0.00  0.00    +0.000 OA
ATOM     82  CB  ILE C   9      -2.362 -35.041 -16.404  0.00  0.00    +0.000 C 
ATOM     83  CG1 ILE C   9      -1.687 -35.228 -15.039  0.00  0.00    +0.000 C 
ATOM     84  CG2 ILE C   9      -3.602 -34.140 -16.285  0.00  0.00    +0.000 C 
ATOM     85  CD1 ILE C   9      -2.544 -35.903 -14.051  0.00  0.00    +0.000 C 
ATOM     86  N   GLY C  10      -4.803 -36.913 -18.060  0.00  0.00    +0.000 N 
ATOM     87  H   GLY C  10      -4.937 -37.510 -17.257  0.00  0.00    +0.000 HD
ATOM     88  CA  GLY C  10      -5.836 -36.835 -19.080  0.00  0.00    +0.000 C 
ATOM     89  C   GLY C  10      -5.450 -37.400 -20.431  0.00  0.00    +0.000 C 
ATOM     90  O   GLY C  10      -5.372 -36.660 -21.419  0.00  0.00    +0.000 OA
ATOM     91  N   GLY C  11      -5.241 -38.715 -20.468  0.00  0.00    +0.000 N 
ATOM     92  H   GLY C  11      -5.318 -39.240 -19.610  0.00  0.00    +0.000 HD
ATOM     93  CA  GLY C  11      -4.917 -39.438 -21.692  0.00  0.00    +0.000 C 
ATOM     94  C   GLY C  11      -5.793 -40.663 -21.884  0.00  0.00    +0.000 C 
ATOM     95  O   GLY C  11      -6.320 -41.199 -20.904  0.00  0.00    +0.000 OA
ATOM     96  N   ILE C  12      -5.994 -41.103 -23.141  0.00  0.00    +0.000 N 
ATOM     97  H   ILE C  12      -5.647 -40.562 -23.928  0.00  0.00    +0.000 HD
ATOM     98  CA  ILE C  12      -6.790 -42.306 -23.392  0.00  0.00    +0.000 C 
ATOM     99  C   ILE C  12      -5.964 -43.313 -24.209  0.00  0.00    +0.000 C 
ATOM    100  O   ILE C  12      -5.498 -43.010 -25.309  0.00  0.00    +0.000 OA
ATOM    101  CB  ILE C  12      -8.210 -42.033 -23.959  0.00  0.00    +0.000 C 
ATOM    102  CG1 ILE C  12      -8.965 -43.341 -24.258  0.00  0.00    +0.000 C 
ATOM    103  CG2 ILE C  12      -8.182 -41.099 -25.158  0.00  0.00    +0.000 C 
ATOM    104  CD1 ILE C  12     -10.403 -43.272 -23.995  0.00  0.00    +0.000 C 
ATOM    105  N   THR C  13      -5.726 -44.491 -23.615  0.00  0.00    +0.000 N 
ATOM    106  H   THR C  13      -6.265 -44.710 -22.783  0.00  0.00    +0.000 HD
ATOM    107  CA  THR C  13      -4.919 -45.562 -24.197  0.00  0.00    +0.000 C 
ATOM    108  C   THR C  13      -5.803 -46.674 -24.770  0.00  0.00    +0.000 C 
ATOM    109  O   THR C  13      -6.876 -46.958 -24.226  0.00  0.00    +0.000 OA
ATOM    110  CB  THR C  13      -3.908 -46.099 -23.135  0.00  0.00    +0.000 C 
ATOM    111  OG1 THR C  13      -3.291 -47.312 -23.582  0.00  0.00    +0.000 OA
ATOM    112  HG1 THR C  13      -2.661 -47.081 -24.289  0.00  0.00    +0.000 HD
ATOM    113  CG2 THR C  13      -4.547 -46.356 -21.776  0.00  0.00    +0.000 C 
ATOM    114  N   ILE C  14      -5.356 -47.303 -25.872  0.00  0.00    +0.000 N 
ATOM    115  H   ILE C  14      -4.460 -47.050 -26.260  0.00  0.00    +0.000 HD
ATOM    116  CA  ILE C  14      -6.088 -48.426 -26.447  0.00  0.00    +0.000 C 
ATOM    117  C   ILE C  14      -5.440 -49.704 -25.963  0.00  0.00    +0.000 C 
ATOM    118  O   ILE C  14      -4.381 -50.080 -26.454  0.00  0.00    +0.000 OA
ATOM    119  CB  ILE C  14      -6.123 -48.398 -27.983  0.00  0.00    +0.000 C 
ATOM    120  CG1 ILE C  14      -6.750 -47.117 -28.482  0.00  0.00    +0.000 C 
ATOM    121  CG2 ILE C  14      -6.866 -49.611 -28.521  0.00  0.00    +0.000 C 
ATOM    122  CD1 ILE C  14      -6.598 -46.927 -29.931  0.00  0.00    +0.000 C 
ATOM    123  N   ALA C  15      -6.034 -50.341 -24.965  0.00  0.00    +0.000 N 
ATOM    124  H   ALA C  15      -6.973 -50.062 -24.703  0.00  0.00    +0.000 HD
ATOM    125  CA  ALA C  15      -5.520 -51.605 -24.456  0.00  0.00    +0.000 C 
ATOM    126  C   ALA C  15      -6.050 -52.667 -25.394  0.00  0.00    +0.000 C 
ATOM    127  O   ALA C  15      -7.246 -52.644 -25.687  0.00  0.00    +0.000 OA
ATOM    128  CB  ALA C  15      -6.053 -51.851 -23.056  0.00  0.00    +0.000 C 
ATOM    129  N   HIS C  16      -5.196 -53.572 -25.896  0.00  0.00    +0.000 N 
ATOM    130  H   HIS C  16      -4.202 -53.531 -25.685  0.00  0.00    +0.000 HD
ATOM    131  CA  HIS C  16      -5.688 -54.635 -26.775  0.00  0.00    +0.000 C 
ATOM    132  C   HIS C  16      -4.898 -55.920 -26.644  0.00  0.00    +0.000 C 
ATOM    133  O   HIS C  16      -3.794 -55.901 -26.114  0.00  0.00    +0.000 OA
ATOM    134  CB  HIS C  16      -5.802 -54.176 -28.232  0.00  0.00    +0.000 C 
ATOM    135  CG  HIS C  16      -4.516 -54.126 -28.974  0.00  0.00    +0.000 A 
ATOM    136  ND1 HIS C  16      -3.678 -53.038 -28.881  0.00  0.00    +0.000 N 
ATOM    137  HD1 HIS C  16      -3.746 -52.268 -28.231  0.00  0.00    +0.000 HD
ATOM    138  CD2 HIS C  16      -3.993 -55.018 -29.845  0.00  0.00    +0.000 A 
ATOM    139  CE1 HIS C  16      -2.658 -53.310 -29.672  0.00  0.00    +0.000 A 
ATOM    140  NE2 HIS C  16      -2.802 -54.498 -30.266  0.00  0.00    +0.000 NA
ATOM    141  N   VAL C  17      -5.479 -57.045 -27.076  0.00  0.00    +0.000 N 
ATOM    142  H   VAL C  17      -6.362 -56.997 -27.559  0.00  0.00    +0.000 HD
ATOM    143  CA  VAL C  17      -4.806 -58.327 -26.973  0.00  0.00    +0.000 C 
ATOM    144  C   VAL C  17      -3.965 -58.617 -28.218  0.00  0.00    +0.000 C 
ATOM    145  O   VAL C  17      -4.431 -58.530 -29.350  0.00  0.00    +0.000 OA
ATOM    146  CB  VAL C  17      -5.772 -59.475 -26.607  0.00  0.00    +0.000 C 
ATOM    147  CG1 VAL C  17      -6.874 -59.622 -27.639  0.00  0.00    +0.000 C 
ATOM    148  CG2 VAL C  17      -5.033 -60.791 -26.417  0.00  0.00    +0.000 C 
ATOM    149  N   NME C  18      -2.702 -58.892 -27.999  0.00  0.00    +0.000 N 
ATOM    150  H   NME C  18      -2.366 -58.909 -27.040  0.00  0.00    +0.000 HD
ATOM    151  C   NME C  18      -1.762 -59.185 -29.060  0.00  0.00    +0.000 C 
TER 
REMARK  Name = /home/xianyang/aimnet2_score_pipelines/work/L1234-fixed-receptor-eint-20260921/L4/P42226/prepared.pdb
REMARK                            x       y       z     vdW  Elec       q    Type
REMARK                         _______ _______ _______ _____ _____    ______ ____
ATOM      1  CH3 ACE D   1      -0.041 -60.635 -24.253  0.00  0.00    +0.000 C 
ATOM      2  C   ACE D   1      -0.931 -59.404 -24.373  0.00  0.00    +0.000 C 
ATOM      3  O   ACE D   1      -1.727 -59.296 -25.307  0.00  0.00    +0.000 OA
ATOM      4  N   ILE D   2      -0.822 -58.487 -23.424  0.00  0.00    +0.000 N 
ATOM      5  H   ILE D   2      -0.106 -58.578 -22.721  0.00  0.00    +0.000 HD
ATOM      6  CA  ILE D   2      -1.607 -57.260 -23.472  0.00  0.00    +0.000 C 
ATOM      7  C   ILE D   2      -0.712 -56.153 -23.986  0.00  0.00    +0.000 C 
ATOM      8  O   ILE D   2       0.410 -56.001 -23.513  0.00  0.00    +0.000 OA
ATOM      9  CB  ILE D   2      -2.255 -56.936 -22.104  0.00  0.00    +0.000 C 
ATOM     10  CG1 ILE D   2      -3.276 -58.030 -21.686  0.00  0.00    +0.000 C 
ATOM     11  CG2 ILE D   2      -2.878 -55.547 -22.100  0.00  0.00    +0.000 C 
ATOM     12  CD1 ILE D   2      -4.357 -58.336 -22.668  0.00  0.00    +0.000 C 
ATOM     13  N   GLU D   3      -1.159 -55.447 -25.015  0.00  0.00    +0.000 N 
ATOM     14  H   GLU D   3      -2.077 -55.644 -25.408  0.00  0.00    +0.000 HD
ATOM     15  CA  GLU D   3      -0.410 -54.340 -25.588  0.00  0.00    +0.000 C 
ATOM     16  C   GLU D   3      -1.216 -53.078 -25.354  0.00  0.00    +0.000 C 
ATOM     17  O   GLU D   3      -2.432 -53.096 -25.533  0.00  0.00    +0.000 OA
ATOM     18  CB  GLU D   3      -0.158 -54.544 -27.099  0.00  0.00    +0.000 C 
ATOM     19  CG  GLU D   3       0.384 -53.294 -27.776  0.00  0.00    +0.000 C 
ATOM     20  CD  GLU D   3       1.093 -53.448 -29.103  0.00  0.00    +0.000 C 
ATOM     21  OE1 GLU D   3       1.962 -54.342 -29.218  0.00  0.00    +0.000 OA
ATOM     22  OE2 GLU D   3       0.798 -52.652 -30.025  0.00  0.00    +0.000 OA
ATOM     23  N   ASN D   4      -0.553 -51.977 -24.968  0.00  0.00    +0.000 N 
ATOM     24  H   ASN D   4       0.457 -51.976 -24.980  0.00  0.00    +0.000 HD
ATOM     25  CA  ASN D   4      -1.243 -50.706 -24.781  0.00  0.00    +0.000 C 
ATOM     26  C   ASN D   4      -0.659 -49.674 -25.724  0.00  0.00    +0.000 C 
ATOM     27  O   ASN D   4       0.523 -49.387 -25.624  0.00  0.00    +0.000 OA
ATOM     28  CB  ASN D   4      -1.138 -50.223 -23.336  0.00  0.00    +0.000 C 
ATOM     29  CG  ASN D   4      -1.896 -51.072 -22.343  0.00  0.00    +0.000 C 
ATOM     30  OD1 ASN D   4      -3.026 -50.751 -21.968  0.00  0.00    +0.000 OA
ATOM     31  ND2 ASN D   4      -1.289 -52.165 -21.879  0.00  0.00    +0.000 N 
ATOM     32 HD21 ASN D   4      -1.857 -52.820 -21.372  0.00  0.00    +0.000 HD
ATOM     33 HD22 ASN D   4      -0.418 -52.450 -22.296  0.00  0.00    +0.000 HD
ATOM     34  N   ILE D   5      -1.467 -49.153 -26.660  0.00  0.00    +0.000 N 
ATOM     35  H   ILE D   5      -2.430 -49.473 -26.686  0.00  0.00    +0.000 HD
ATOM     36  CA  ILE D   5      -1.054 -48.110 -27.607  0.00  0.00    +0.000 C 
ATOM     37  C   ILE D   5      -0.781 -46.822 -26.803  0.00  0.00    +0.000 C 
ATOM     38  O   ILE D   5      -1.434 -46.583 -25.791  0.00  0.00    +0.000 OA
ATOM     39  CB  ILE D   5      -2.171 -47.865 -28.687  0.00  0.00    +0.000 C 
ATOM     40  CG1 ILE D   5      -2.710 -49.186 -29.324  0.00  0.00    +0.000 C 
ATOM     41  CG2 ILE D   5      -1.750 -46.859 -29.763  0.00  0.00    +0.000 C 
ATOM     42  CD1 ILE D   5      -1.854 -49.846 -30.371  0.00  0.00    +0.000 C 
ATOM     43  N   GLN D   6       0.165 -45.984 -27.250  0.00  0.00    +0.000 N 
ATOM     44  H   GLN D   6       0.651 -46.239 -28.094  0.00  0.00    +0.000 HD
ATOM     45  CA  GLN D   6       0.531 -44.703 -26.628  0.00  0.00    +0.000 C 
ATOM     46  C   GLN D   6      -0.726 -43.852 -26.411  0.00  0.00    +0.000 C 
ATOM     47  O   GLN D   6      -1.600 -43.858 -27.279  0.00  0.00    +0.000 OA
ATOM     48  CB  GLN D   6       1.510 -43.980 -27.565  0.00  0.00    +0.000 C 
ATOM     49  CG  GLN D   6       2.008 -42.618 -27.107  0.00  0.00    +0.000 C 
ATOM     50  CD  GLN D   6       3.056 -42.073 -28.056  0.00  0.00    +0.000 C 
ATOM     51  OE1 GLN D   6       3.067 -42.354 -29.263  0.00  0.00    +0.000 OA
ATOM     52  NE2 GLN D   6       3.973 -41.284 -27.521  0.00  0.00    +0.000 N 
ATOM     53 HE21 GLN D   6       3.898 -41.011 -26.555  0.00  0.00    +0.000 HD
ATOM     54 HE22 GLN D   6       4.639 -40.881 -28.153  0.00  0.00    +0.000 HD
ATOM     55  N   PRO D   7      -0.905 -43.220 -25.237  0.00  0.00    +0.000 N 
ATOM     56  CA  PRO D   7      -2.156 -42.489 -24.983  0.00  0.00    +0.000 C 
ATOM     57  C   PRO D   7      -2.356 -41.218 -25.800  0.00  0.00    +0.000 C 
ATOM     58  O   PRO D   7      -1.389 -40.554 -26.161  0.00  0.00    +0.000 OA
ATOM     59  CB  PRO D   7      -2.104 -42.183 -23.478  0.00  0.00    +0.000 C 
ATOM     60  CG  PRO D   7      -0.965 -42.965 -22.939  0.00  0.00    +0.000 C 
ATOM     61  CD  PRO D   7      -0.013 -43.162 -24.073  0.00  0.00    +0.000 C 
ATOM     62  N   PHE D   8      -3.621 -40.879 -26.091  0.00  0.00    +0.000 N 
ATOM     63  H   PHE D   8      -4.372 -41.521 -25.862  0.00  0.00    +0.000 HD
ATOM     64  CA  PHE D   8      -3.922 -39.665 -26.840  0.00  0.00    +0.000 C 
ATOM     65  C   PHE D   8      -4.454 -38.614 -25.890  0.00  0.00    +0.000 C 
ATOM     66  O   PHE D   8      -5.502 -38.829 -25.285  0.00  0.00    +0.000 OA
ATOM     67  CB  PHE D   8      -4.998 -39.894 -27.921  0.00  0.00    +0.000 C 
ATOM     68  CG  PHE D   8      -4.987 -41.210 -28.653  0.00  0.00    +0.000 A 
ATOM     69  CD1 PHE D   8      -3.897 -41.588 -29.414  0.00  0.00    +0.000 A 
ATOM     70  CD2 PHE D   8      -6.100 -42.033 -28.645  0.00  0.00    +0.000 A 
ATOM     71  CE1 PHE D   8      -3.901 -42.790 -30.108  0.00  0.00    +0.000 A 
ATOM     72  CE2 PHE D   8      -6.104 -43.229 -29.346  0.00  0.00    +0.000 A 
ATOM     73  CZ  PHE D   8      -5.002 -43.604 -30.068  0.00  0.00    +0.000 A 
ATOM     74  N   SER D   9      -3.770 -37.471 -25.774  0.00  0.00    +0.000 N 
ATOM     75  H   SER D   9      -2.964 -37.300 -26.371  0.00  0.00    +0.000 HD
ATOM     76  CA  SER D   9      -4.288 -36.356 -24.980  0.00  0.00    +0.000 C 
ATOM     77  C   SER D   9      -5.252 -35.535 -25.886  0.00  0.00    +0.000 C 
ATOM     78  O   SER D   9      -5.343 -35.800 -27.092  0.00  0.00    +0.000 OA
ATOM     79  CB  SER D   9      -3.149 -35.484 -24.449  0.00  0.00    +0.000 C 
ATOM     80  OG  SER D   9      -2.557 -34.686 -25.464  0.00  0.00    +0.000 OA
ATOM     81  HG  SER D   9      -2.282 -35.260 -26.226  0.00  0.00    +0.000 HD
ATOM     82  N   ALA D  10      -5.968 -34.546 -25.316  0.00  0.00    +0.000 N 
ATOM     83  H   ALA D  10      -5.878 -34.393 -24.323  0.00  0.00    +0.000 HD
ATOM     84  CA  ALA D  10      -6.917 -33.730 -26.074  0.00  0.00    +0.000 C 
ATOM     85  C   ALA D  10      -6.285 -32.981 -27.250  0.00  0.00    +0.000 C 
ATOM     86  O   ALA D  10      -6.966 -32.702 -28.231  0.00  0.00    +0.000 OA
ATOM     87  CB  ALA D  10      -7.627 -32.763 -25.151  0.00  0.00    +0.000 C 
ATOM     88  N   LYS D  11      -4.982 -32.691 -27.170  0.00  0.00    +0.000 N 
ATOM     89  H   LYS D  11      -4.457 -33.021 -26.369  0.00  0.00    +0.000 HD
ATOM     90  CA  LYS D  11      -4.279 -32.023 -28.258  0.00  0.00    +0.000 C 
ATOM     91  C   LYS D  11      -4.145 -32.971 -29.468  0.00  0.00    +0.000 C 
ATOM     92  O   LYS D  11      -4.335 -32.525 -30.599  0.00  0.00    +0.000 OA
ATOM     93  CB  LYS D  11      -2.908 -31.514 -27.796  0.00  0.00    +0.000 C 
ATOM     94  CG  LYS D  11      -2.237 -30.591 -28.806  0.00  0.00    +0.000 C 
ATOM     95  CD  LYS D  11      -0.832 -31.053 -29.194  0.00  0.00    +0.000 C 
ATOM     96  CE  LYS D  11      -0.097 -29.948 -29.912  0.00  0.00    +0.000 C 
ATOM     97  NZ  LYS D  11      -0.963 -29.278 -30.923  0.00  0.00    +0.000 N 
ATOM     98  HZ1 LYS D  11      -0.493 -28.483 -31.337  0.00  0.00    +0.000 HD
ATOM     99  HZ2 LYS D  11      -1.827 -28.962 -30.499  0.00  0.00    +0.000 HD
ATOM    100  HZ3 LYS D  11      -1.207 -29.929 -31.661  0.00  0.00    +0.000 HD
ATOM    101  N   ASP D  12      -3.860 -34.275 -29.233  0.00  0.00    +0.000 N 
ATOM    102  H   ASP D  12      -3.674 -34.589 -28.285  0.00  0.00    +0.000 HD
ATOM    103  CA  ASP D  12      -3.768 -35.281 -30.308  0.00  0.00    +0.000 C 
ATOM    104  C   ASP D  12      -5.163 -35.628 -30.839  0.00  0.00    +0.000 C 
ATOM    105  O   ASP D  12      -5.325 -35.908 -32.025  0.00  0.00    +0.000 OA
ATOM    106  CB  ASP D  12      -3.064 -36.562 -29.830  0.00  0.00    +0.000 C 
ATOM    107  CG  ASP D  12      -1.920 -36.317 -28.868  0.00  0.00    +0.000 C 
ATOM    108  OD1 ASP D  12      -2.193 -35.971 -27.706  0.00  0.00    +0.000 OA
ATOM    109  OD2 ASP D  12      -0.752 -36.462 -29.282  0.00  0.00    +0.000 OA
ATOM    110  N   LEU D  13      -6.169 -35.606 -29.958  0.00  0.00    +0.000 N 
ATOM    111  H   LEU D  13      -5.940 -35.438 -28.984  0.00  0.00    +0.000 HD
ATOM    112  CA  LEU D  13      -7.556 -35.867 -30.318  0.00  0.00    +0.000 C 
ATOM    113  C   LEU D  13      -8.243 -34.682 -31.009  0.00  0.00    +0.000 C 
ATOM    114  O   LEU D  13      -9.270 -34.866 -31.662  0.00  0.00    +0.000 OA
ATOM    115  CB  LEU D  13      -8.342 -36.350 -29.108  0.00  0.00    +0.000 C 
ATOM    116  CG  LEU D  13      -7.875 -37.701 -28.607  0.00  0.00    +0.000 C 
ATOM    117  CD1 LEU D  13      -8.375 -37.969 -27.211  0.00  0.00    +0.000 C 
ATOM    118  CD2 LEU D  13      -8.272 -38.804 -29.572  0.00  0.00    +0.000 C 
ATOM    119  N   NME D  14      -7.677 -33.480 -30.886  0.00  0.00    +0.000 N 
ATOM    120  H   NME D  14      -6.889 -33.370 -30.262  0.00  0.00    +0.000 HD
ATOM    121  C   NME D  14      -8.184 -32.317 -31.601  0.00  0.00    +0.000 C 
TER 
REMARK  Name = /home/xianyang/aimnet2_score_pipelines/work/L1234-fixed-receptor-eint-20260921/L4/P42226/prepared.pdb
REMARK                            x       y       z     vdW  Elec       q    Type
REMARK                         _______ _______ _______ _____ _____    ______ ____
ATOM      1  CH3 ACE E   1     -12.859 -43.073 -33.741  0.00  0.00    +0.000 C 
ATOM      2  C   ACE E   1     -12.108 -43.151 -35.056  0.00  0.00    +0.000 C 
ATOM      3  O   ACE E   1     -11.983 -44.226 -35.644  0.00  0.00    +0.000 OA
ATOM      4  N   ASP E   2     -11.583 -42.014 -35.520  0.00  0.00    +0.000 N 
ATOM      5  H   ASP E   2     -11.820 -41.137 -35.083  0.00  0.00    +0.000 HD
ATOM      6  CA  ASP E   2     -10.791 -41.981 -36.744  0.00  0.00    +0.000 C 
ATOM      7  C   ASP E   2      -9.486 -42.715 -36.493  0.00  0.00    +0.000 C 
ATOM      8  O   ASP E   2      -9.128 -43.585 -37.278  0.00  0.00    +0.000 OA
ATOM      9  CB  ASP E   2     -10.513 -40.535 -37.191  0.00  0.00    +0.000 C 
ATOM     10  CG  ASP E   2     -11.671 -39.926 -37.944  0.00  0.00    +0.000 C 
ATOM     11  OD1 ASP E   2     -12.289 -40.646 -38.765  0.00  0.00    +0.000 OA
ATOM     12  OD2 ASP E   2     -11.965 -38.727 -37.715  0.00  0.00    +0.000 OA
ATOM     13  N   ARG E   3      -8.821 -42.423 -35.360  0.00  0.00    +0.000 N 
ATOM     14  H   ARG E   3      -9.178 -41.657 -34.812  0.00  0.00    +0.000 HD
ATOM     15  CA  ARG E   3      -7.564 -43.053 -34.986  0.00  0.00    +0.000 C 
ATOM     16  C   ARG E   3      -7.730 -44.545 -34.777  0.00  0.00    +0.000 C 
ATOM     17  O   ARG E   3      -6.866 -45.312 -35.200  0.00  0.00    +0.000 OA
ATOM     18  CB  ARG E   3      -6.980 -42.391 -33.742  0.00  0.00    +0.000 C 
ATOM     19  CG  ARG E   3      -6.268 -41.108 -34.070  0.00  0.00    +0.000 C 
ATOM     20  CD  ARG E   3      -5.900 -40.322 -32.837  0.00  0.00    +0.000 C 
ATOM     21  NE  ARG E   3      -5.021 -39.205 -33.182  0.00  0.00    +0.000 N 
ATOM     22  HE  ARG E   3      -5.442 -38.302 -33.357  0.00  0.00    +0.000 HD
ATOM     23  CZ  ARG E   3      -3.692 -39.269 -33.188  0.00  0.00    +0.000 C 
ATOM     24  NH1 ARG E   3      -3.072 -40.394 -32.842  0.00  0.00    +0.000 N 
ATOM     25 HH11 ARG E   3      -3.621 -41.160 -32.485  0.00  0.00    +0.000 HD
ATOM     26 HH12 ARG E   3      -2.069 -40.429 -32.811  0.00  0.00    +0.000 HD
ATOM     27  NH2 ARG E   3      -2.972 -38.208 -33.530  0.00  0.00    +0.000 N 
ATOM     28 HH21 ARG E   3      -1.970 -38.237 -33.487  0.00  0.00    +0.000 HD
ATOM     29 HH22 ARG E   3      -3.444 -37.328 -33.672  0.00  0.00    +0.000 HD
ATOM     30  N   ILE E   4      -8.850 -44.966 -34.162  0.00  0.00    +0.000 N 
ATOM     31  H   ILE E   4      -9.544 -44.277 -33.931  0.00  0.00    +0.000 HD
ATOM     32  CA  ILE E   4      -9.144 -46.383 -33.944  0.00  0.00    +0.000 C 
ATOM     33  C   ILE E   4      -9.336 -47.090 -35.285  0.00  0.00    +0.000 C 
ATOM     34  O   ILE E   4      -8.884 -48.221 -35.436  0.00  0.00    +0.000 OA
ATOM     35  CB  ILE E   4     -10.306 -46.597 -32.930  0.00  0.00    +0.000 C 
ATOM     36  CG1 ILE E   4      -9.819 -46.299 -31.499  0.00  0.00    +0.000 C 
ATOM     37  CG2 ILE E   4     -10.901 -48.003 -33.008  0.00  0.00    +0.000 C 
ATOM     38  CD1 ILE E   4     -10.869 -46.278 -30.465  0.00  0.00    +0.000 C 
ATOM     39  N   ARG E   5      -9.899 -46.401 -36.287  0.00  0.00    +0.000 N 
ATOM     40  H   ARG E   5     -10.204 -45.447 -36.128  0.00  0.00    +0.000 HD
ATOM     41  CA  ARG E   5     -10.062 -46.966 -37.621  0.00  0.00    +0.000 C 
ATOM     42  C   ARG E   5      -8.711 -47.150 -38.354  0.00  0.00    +0.000 C 
ATOM     43  O   ARG E   5      -8.527 -48.140 -39.064  0.00  0.00    +0.000 OA
ATOM     44  CB  ARG E   5     -11.028 -46.112 -38.448  0.00  0.00    +0.000 C 
ATOM     45  CG  ARG E   5     -12.492 -46.320 -38.090  0.00  0.00    +0.000 C 
ATOM     46  CD  ARG E   5     -13.358 -46.203 -39.326  0.00  0.00    +0.000 C 
ATOM     47  NE  ARG E   5     -14.436 -45.232 -39.156  0.00  0.00    +0.000 N 
ATOM     48  HE  ARG E   5     -14.188 -44.254 -39.228  0.00  0.00    +0.000 HD
ATOM     49  CZ  ARG E   5     -15.693 -45.550 -38.858  0.00  0.00    +0.000 C 
ATOM     50  NH1 ARG E   5     -16.046 -46.822 -38.703  0.00  0.00    +0.000 N 
ATOM     51 HH11 ARG E   5     -15.341 -47.530 -38.787  0.00  0.00    +0.000 HD
ATOM     52 HH12 ARG E   5     -16.993 -47.066 -38.485  0.00  0.00    +0.000 HD
ATOM     53  NH2 ARG E   5     -16.610 -44.600 -38.723  0.00  0.00    +0.000 N 
ATOM     54 HH21 ARG E   5     -17.560 -44.832 -38.504  0.00  0.00    +0.000 HD
ATOM     55 HH22 ARG E   5     -16.338 -43.636 -38.831  0.00  0.00    +0.000 HD
ATOM     56  N   ASP E   6      -7.762 -46.220 -38.144  0.00  0.00    +0.000 N 
ATOM     57  H   ASP E   6      -8.039 -45.379 -37.652  0.00  0.00    +0.000 HD
ATOM     58  CA  ASP E   6      -6.414 -46.236 -38.736  0.00  0.00    +0.000 C 
ATOM     59  C   ASP E   6      -5.537 -47.400 -38.262  0.00  0.00    +0.000 C 
ATOM     60  O   ASP E   6      -4.516 -47.680 -38.882  0.00  0.00    +0.000 OA
ATOM     61  CB  ASP E   6      -5.661 -44.948 -38.373  0.00  0.00    +0.000 C 
ATOM     62  CG  ASP E   6      -6.169 -43.689 -39.035  0.00  0.00    +0.000 C 
ATOM     63  OD1 ASP E   6      -6.775 -43.795 -40.133  0.00  0.00    +0.000 OA
ATOM     64  OD2 ASP E   6      -5.950 -42.589 -38.463  0.00  0.00    +0.000 OA
ATOM     65  N   LEU E   7      -5.872 -48.004 -37.123  0.00  0.00    +0.000 N 
ATOM     66  H   LEU E   7      -6.726 -47.723 -36.659  0.00  0.00    +0.000 HD
ATOM     67  CA  LEU E   7      -5.086 -49.087 -36.558  0.00  0.00    +0.000 C 
ATOM     68  C   LEU E   7      -5.687 -50.408 -36.981  0.00  0.00    +0.000 C 
ATOM     69  O   LEU E   7      -6.701 -50.823 -36.431  0.00  0.00    +0.000 OA
ATOM     70  CB  LEU E   7      -5.077 -48.964 -35.032  0.00  0.00    +0.000 C 
ATOM     71  CG  LEU E   7      -3.912 -48.181 -34.428  0.00  0.00    +0.000 C 
ATOM     72  CD1 LEU E   7      -3.870 -46.762 -34.933  0.00  0.00    +0.000 C 
ATOM     73  CD2 LEU E   7      -4.004 -48.147 -32.919  0.00  0.00    +0.000 C 
ATOM     74  N   ALA E   8      -5.066 -51.063 -37.967  0.00  0.00    +0.000 N 
ATOM     75  H   ALA E   8      -4.328 -50.573 -38.449  0.00  0.00    +0.000 HD
ATOM     76  CA  ALA E   8      -5.531 -52.331 -38.523  0.00  0.00    +0.000 C 
ATOM     77  C   ALA E   8      -5.495 -53.485 -37.559  0.00  0.00    +0.000 C 
ATOM     78  O   ALA E   8      -6.252 -54.438 -37.735  0.00  0.00    +0.000 OA
ATOM     79  CB  ALA E   8      -4.727 -52.686 -39.746  0.00  0.00    +0.000 C 
ATOM     80  N   NME E   9      -4.601 -53.434 -36.568  0.00  0.00    +0.000 N 
ATOM     81  H   NME E   9      -4.036 -52.607 -36.469  0.00  0.00    +0.000 HD
ATOM     82  C   NME E   9      -4.508 -54.491 -35.576  0.00  0.00    +0.000 C 
TER 
