REMARK  Name = /data/user_data/xianyang/t3-aimnet-affinity-balanced/L1/Q96MU7/pocket.pdb
REMARK                            x       y       z     vdW  Elec       q    Type
REMARK                         _______ _______ _______ _____ _____    ______ ____
ATOM      1  N   ILE A   1       6.414   3.116  -3.323  0.00  0.00    +0.000 N 
ATOM      2  CA  ILE A   1       5.711   2.569  -2.170  0.00  0.00    +0.000 C 
ATOM      3  C   ILE A   1       6.485   2.971  -0.931  0.00  0.00    +0.000 C 
ATOM      4  O   ILE A   1       7.695   2.734  -0.848  0.00  0.00    +0.000 OA
ATOM      5  CB  ILE A   1       5.576   1.038  -2.251  0.00  0.00    +0.000 C 
ATOM      6  CG1 ILE A   1       4.645   0.640  -3.400  0.00  0.00    +0.000 C 
ATOM      7  CG2 ILE A   1       5.157   0.444  -0.879  0.00  0.00    +0.000 C 
ATOM      8  CD1 ILE A   1       3.263   1.320  -3.340  0.00  0.00    +0.000 C 
ATOM      9  N   LYS A   2       5.809   3.622   0.015  0.00  0.00    +0.000 N 
ATOM     10  CA  LYS A   2       6.427   4.018   1.275  0.00  0.00    +0.000 C 
ATOM     11  C   LYS A   2       5.813   3.198   2.398  0.00  0.00    +0.000 C 
ATOM     12  O   LYS A   2       4.587   3.129   2.511  0.00  0.00    +0.000 OA
ATOM     13  CB  LYS A   2       6.234   5.516   1.540  0.00  0.00    +0.000 C 
ATOM     14  CG  LYS A   2       6.882   6.399   0.475  0.00  0.00    +0.000 C 
ATOM     15  CD  LYS A   2       8.407   6.351   0.547  0.00  0.00    +0.000 C 
ATOM     16  CE  LYS A   2       9.021   7.690   0.929  0.00  0.00    +0.000 C 
ATOM     17  NZ  LYS A   2       9.399   8.544  -0.251  0.00  0.00    +0.000 N 
ATOM     18  N   SER A   3       6.655   2.547   3.201  0.00  0.00    +0.000 N 
ATOM     19  CA  SER A   3       6.198   1.766   4.339  0.00  0.00    +0.000 C 
ATOM     20  C   SER A   3       6.656   2.417   5.638  0.00  0.00    +0.000 C 
ATOM     21  O   SER A   3       7.798   2.871   5.746  0.00  0.00    +0.000 OA
ATOM     22  CB  SER A   3       6.740   0.329   4.269  0.00  0.00    +0.000 C 
ATOM     23  OG  SER A   3       6.371  -0.394   5.438  0.00  0.00    +0.000 OA
ATOM     24  N   ASN A   4       5.776   2.420   6.638  0.00  0.00    +0.000 N 
ATOM     25  CA  ASN A   4       6.141   2.983   7.931  0.00  0.00    +0.000 C 
ATOM     26  C   ASN A   4       7.147   2.114   8.671  0.00  0.00    +0.000 C 
ATOM     27  O   ASN A   4       7.899   2.631   9.507  0.00  0.00    +0.000 OA
ATOM     28  CB  ASN A   4       4.896   3.165   8.804  0.00  0.00    +0.000 C 
ATOM     29  CG  ASN A   4       4.190   4.471   8.546  0.00  0.00    +0.000 C 
ATOM     30  OD1 ASN A   4       4.298   5.045   7.463  0.00  0.00    +0.000 OA
ATOM     31  ND2 ASN A   4       3.457   4.953   9.549  0.00  0.00    +0.000 N 
ATOM     32  N   ASN A   5       7.178   0.810   8.398  0.00  0.00    +0.000 N 
ATOM     33  CA  ASN A   5       8.047  -0.085   9.146  0.00  0.00    +0.000 C 
ATOM     34  C   ASN A   5       8.720  -1.095   8.223  0.00  0.00    +0.000 C 
ATOM     35  O   ASN A   5       8.245  -1.391   7.117  0.00  0.00    +0.000 OA
ATOM     36  CB  ASN A   5       7.289  -0.813  10.273  0.00  0.00    +0.000 C 
ATOM     37  CG  ASN A   5       6.093  -1.583   9.778  0.00  0.00    +0.000 C 
ATOM     38  OD1 ASN A   5       6.212  -2.472   8.927  0.00  0.00    +0.000 OA
ATOM     39  ND2 ASN A   5       4.924  -1.267  10.321  0.00  0.00    +0.000 N 
ATOM     40  H   ILE A   1       5.916   2.862  -4.176  0.00  0.00    +0.000 HD
ATOM     41  H   ILE A   1       7.360   2.737  -3.356  0.00  0.00    +0.000 HD
ATOM     42  H   ILE A   1       6.457   4.132  -3.244  0.00  0.00    +0.000 HD
ATOM     43  H   LYS A   2       4.862   3.843  -0.142  0.00  0.00    +0.000 HD
ATOM     44  H   LYS A   2       8.562   8.770  -0.789  0.00  0.00    +0.000 HD
ATOM     45  H   LYS A   2      10.056   8.035  -0.842  0.00  0.00    +0.000 HD
ATOM     46  H   LYS A   2       9.835   9.405   0.078  0.00  0.00    +0.000 HD
ATOM     47  H   SER A   3       7.621   2.597   3.017  0.00  0.00    +0.000 HD
ATOM     48  H   SER A   3       6.744   0.043   6.220  0.00  0.00    +0.000 HD
ATOM     49  H   ASN A   4       4.877   2.041   6.503  0.00  0.00    +0.000 HD
ATOM     50  H   ASN A   4       2.972   5.803   9.440  0.00  0.00    +0.000 HD
ATOM     51  H   ASN A   4       3.400   4.459  10.399  0.00  0.00    +0.000 HD
ATOM     52  H   ASN A   5       6.607   0.449   7.682  0.00  0.00    +0.000 HD
ATOM     53  H   ASN A   5       4.106  -1.736  10.037  0.00  0.00    +0.000 HD
ATOM     54  H   ASN A   5       4.874  -0.563  11.008  0.00  0.00    +0.000 HD
TER 
REMARK  Name = /data/user_data/xianyang/t3-aimnet-affinity-balanced/L1/Q96MU7/pocket.pdb
REMARK                            x       y       z     vdW  Elec       q    Type
REMARK                         _______ _______ _______ _____ _____    ______ ____
ATOM      1  N   ASN B   1       6.725  -4.981   7.603  0.00  0.00    +0.000 N 
ATOM      2  CA  ASN B   1       5.810  -5.301   6.519  0.00  0.00    +0.000 C 
ATOM      3  C   ASN B   1       6.550  -5.507   5.202  0.00  0.00    +0.000 C 
ATOM      4  O   ASN B   1       6.097  -6.308   4.375  0.00  0.00    +0.000 OA
ATOM      5  CB  ASN B   1       4.754  -4.207   6.380  0.00  0.00    +0.000 C 
ATOM      6  CG  ASN B   1       3.771  -4.228   7.520  0.00  0.00    +0.000 C 
ATOM      7  OD1 ASN B   1       3.663  -5.234   8.237  0.00  0.00    +0.000 OA
ATOM      8  ND2 ASN B   1       3.034  -3.137   7.699  0.00  0.00    +0.000 N 
ATOM      9  H   ASN B   1       7.425  -5.718   7.686  0.00  0.00    +0.000 HD
ATOM     10  H   ASN B   1       6.204  -4.907   8.477  0.00  0.00    +0.000 HD
ATOM     11  H   ASN B   1       7.188  -4.093   7.407  0.00  0.00    +0.000 HD
ATOM     12  H   ASN B   1       3.153  -2.360   7.106  0.00  0.00    +0.000 HD
ATOM     13  H   ASN B   1       2.369  -3.106   8.425  0.00  0.00    +0.000 HD
TER 
REMARK  Name = /data/user_data/xianyang/t3-aimnet-affinity-balanced/L1/Q96MU7/pocket.pdb
REMARK                            x       y       z     vdW  Elec       q    Type
REMARK                         _______ _______ _______ _____ _____    ______ ____
ATOM      1  N   TRP C   1       1.310  -7.431  -1.217  0.00  0.00    +0.000 N 
ATOM      2  CA  TRP C   1       1.322  -6.072  -0.694  0.00  0.00    +0.000 C 
ATOM      3  C   TRP C   1      -0.103  -5.559  -0.536  0.00  0.00    +0.000 C 
ATOM      4  O   TRP C   1      -1.015  -5.972  -1.256  0.00  0.00    +0.000 OA
ATOM      5  CB  TRP C   1       2.113  -5.114  -1.600  0.00  0.00    +0.000 C 
ATOM      6  CG  TRP C   1       2.367  -3.801  -0.935  0.00  0.00    +0.000 C 
ATOM      7  CD1 TRP C   1       1.887  -2.564  -1.300  0.00  0.00    +0.000 C 
ATOM      8  CD2 TRP C   1       3.138  -3.592   0.247  0.00  0.00    +0.000 C 
ATOM      9  NE1 TRP C   1       2.331  -1.610  -0.425  0.00  0.00    +0.000 NA
ATOM     10  CE2 TRP C   1       3.083  -2.215   0.549  0.00  0.00    +0.000 C 
ATOM     11  CE3 TRP C   1       3.865  -4.433   1.087  0.00  0.00    +0.000 C 
ATOM     12  CZ2 TRP C   1       3.748  -1.660   1.638  0.00  0.00    +0.000 C 
ATOM     13  CZ3 TRP C   1       4.513  -3.879   2.184  0.00  0.00    +0.000 C 
ATOM     14  CH2 TRP C   1       4.446  -2.502   2.451  0.00  0.00    +0.000 C 
ATOM     15  N   SER C   2      -0.274  -4.654   0.425  0.00  0.00    +0.000 N 
ATOM     16  CA  SER C   2      -1.513  -3.914   0.628  0.00  0.00    +0.000 C 
ATOM     17  C   SER C   2      -1.193  -2.448   0.862  0.00  0.00    +0.000 C 
ATOM     18  O   SER C   2      -0.157  -2.099   1.444  0.00  0.00    +0.000 OA
ATOM     19  CB  SER C   2      -2.320  -4.466   1.829  0.00  0.00    +0.000 C 
ATOM     20  OG  SER C   2      -2.627  -5.832   1.617  0.00  0.00    +0.000 OA
ATOM     21  N   THR C   3      -2.103  -1.582   0.412  0.00  0.00    +0.000 N 
ATOM     22  CA  THR C   3      -1.929  -0.141   0.530  0.00  0.00    +0.000 C 
ATOM     23  C   THR C   3      -3.274   0.501   0.871  0.00  0.00    +0.000 C 
ATOM     24  O   THR C   3      -4.301  -0.173   0.966  0.00  0.00    +0.000 OA
ATOM     25  CB  THR C   3      -1.341   0.444  -0.765  0.00  0.00    +0.000 C 
ATOM     26  OG1 THR C   3      -0.971   1.809  -0.566  0.00  0.00    +0.000 OA
ATOM     27  CG2 THR C   3      -2.348   0.336  -1.899  0.00  0.00    +0.000 C 
ATOM     28  N   LEU C   4      -3.254   1.819   1.070  0.00  0.00    +0.000 N 
ATOM     29  CA  LEU C   4      -4.461   2.568   1.408  0.00  0.00    +0.000 C 
ATOM     30  C   LEU C   4      -5.417   2.616   0.214  0.00  0.00    +0.000 C 
ATOM     31  O   LEU C   4      -4.998   2.443  -0.931  0.00  0.00    +0.000 OA
ATOM     32  CB  LEU C   4      -4.093   3.979   1.853  0.00  0.00    +0.000 C 
ATOM     33  CG  LEU C   4      -3.538   4.107   3.275  0.00  0.00    +0.000 C 
ATOM     34  CD1 LEU C   4      -3.558   5.555   3.737  0.00  0.00    +0.000 C 
ATOM     35  CD2 LEU C   4      -4.318   3.224   4.240  0.00  0.00    +0.000 C 
ATOM     36  H   TRP C   1       2.269  -7.765  -1.319  0.00  0.00    +0.000 HD
ATOM     37  H   TRP C   1       0.848  -7.441  -2.126  0.00  0.00    +0.000 HD
ATOM     38  H   TRP C   1       0.805  -8.039  -0.572  0.00  0.00    +0.000 HD
ATOM     39  H   SER C   2       0.479  -4.474   1.033  0.00  0.00    +0.000 HD
ATOM     40  H   SER C   2      -3.158  -5.923   0.810  0.00  0.00    +0.000 HD
ATOM     41  H   THR C   3      -2.920  -1.929  -0.014  0.00  0.00    +0.000 HD
ATOM     42  H   THR C   3      -1.757   2.326  -0.328  0.00  0.00    +0.000 HD
ATOM     43  H   LEU C   4      -2.400   2.302   0.987  0.00  0.00    +0.000 HD
TER 
REMARK  Name = /data/user_data/xianyang/t3-aimnet-affinity-balanced/L1/Q96MU7/pocket.pdb
REMARK                            x       y       z     vdW  Elec       q    Type
REMARK                         _______ _______ _______ _____ _____    ______ ____
ATOM      1  N   ASN D   1      -4.552   4.718  -3.137  0.00  0.00    +0.000 N 
ATOM      2  CA  ASN D   1      -3.539   4.086  -3.981  0.00  0.00    +0.000 C 
ATOM      3  C   ASN D   1      -3.976   2.716  -4.482  0.00  0.00    +0.000 C 
ATOM      4  O   ASN D   1      -3.593   2.308  -5.585  0.00  0.00    +0.000 OA
ATOM      5  CB  ASN D   1      -2.227   3.961  -3.216  0.00  0.00    +0.000 C 
ATOM      6  CG  ASN D   1      -1.649   5.296  -2.849  0.00  0.00    +0.000 C 
ATOM      7  OD1 ASN D   1      -1.185   5.503  -1.726  0.00  0.00    +0.000 OA
ATOM      8  ND2 ASN D   1      -1.691   6.231  -3.794  0.00  0.00    +0.000 N 
ATOM      9  H   ASN D   1      -5.426   4.798  -3.657  0.00  0.00    +0.000 HD
ATOM     10  H   ASN D   1      -4.234   5.647  -2.862  0.00  0.00    +0.000 HD
ATOM     11  H   ASN D   1      -4.703   4.150  -2.303  0.00  0.00    +0.000 HD
ATOM     12  H   ASN D   1      -2.071   6.021  -4.678  0.00  0.00    +0.000 HD
ATOM     13  H   ASN D   1      -1.342   7.133  -3.610  0.00  0.00    +0.000 HD
TER 
REMARK  Name = /data/user_data/xianyang/t3-aimnet-affinity-balanced/L1/Q96MU7/pocket.pdb
REMARK                            x       y       z     vdW  Elec       q    Type
REMARK                         _______ _______ _______ _____ _____    ______ ____
ATOM      1  N   ARG E   1      10.161   4.336   5.417  0.00  0.00    +0.000 N 
ATOM      2  CA  ARG E   1      10.304   5.735   5.801  0.00  0.00    +0.000 C 
ATOM      3  C   ARG E   1      11.494   5.925   6.736  0.00  0.00    +0.000 C 
ATOM      4  O   ARG E   1      11.763   5.095   7.607  0.00  0.00    +0.000 OA
ATOM      5  CB  ARG E   1       9.012   6.226   6.442  0.00  0.00    +0.000 C 
ATOM      6  CG  ARG E   1       7.870   6.256   5.436  0.00  0.00    +0.000 C 
ATOM      7  CD  ARG E   1       6.557   6.621   6.073  0.00  0.00    +0.000 C 
ATOM      8  NE  ARG E   1       6.348   8.062   6.091  0.00  0.00    +0.000 N 
ATOM      9  CZ  ARG E   1       5.272   8.648   6.593  0.00  0.00    +0.000 C 
ATOM     10  NH2 ARG E   1       4.296   7.945   7.143  0.00  0.00    +0.000 N 
ATOM     11  NH1 ARG E   1       5.173   9.973   6.541  0.00  0.00    +0.000 N 
ATOM     12  H   ARG E   1       9.360   4.235   4.793  0.00  0.00    +0.000 HD
ATOM     13  H   ARG E   1      10.016   3.768   6.251  0.00  0.00    +0.000 HD
ATOM     14  H   ARG E   1      11.007   4.027   4.938  0.00  0.00    +0.000 HD
ATOM     15  H   ARG E   1       7.050   8.636   5.706  0.00  0.00    +0.000 HD
ATOM     16  H   ARG E   1       4.360   6.964   7.186  0.00  0.00    +0.000 HD
ATOM     17  H   ARG E   1       3.505   8.403   7.509  0.00  0.00    +0.000 HD
ATOM     18  H   ARG E   1       5.894  10.505   6.134  0.00  0.00    +0.000 HD
ATOM     19  H   ARG E   1       4.378  10.422   6.910  0.00  0.00    +0.000 HD
TER 
REMARK  Name = /data/user_data/xianyang/t3-aimnet-affinity-balanced/L1/Q96MU7/pocket.pdb
REMARK                            x       y       z     vdW  Elec       q    Type
REMARK                         _______ _______ _______ _____ _____    ______ ____
ATOM      1  N   TRP F   1      -0.461  -7.944   8.679  0.00  0.00    +0.000 N 
ATOM      2  CA  TRP F   1       0.420  -6.789   8.633  0.00  0.00    +0.000 C 
ATOM      3  C   TRP F   1       0.660  -6.254  10.035  0.00  0.00    +0.000 C 
ATOM      4  O   TRP F   1      -0.200  -6.348  10.910  0.00  0.00    +0.000 OA
ATOM      5  CB  TRP F   1      -0.190  -5.684   7.757  0.00  0.00    +0.000 C 
ATOM      6  CG  TRP F   1      -0.441  -6.088   6.335  0.00  0.00    +0.000 C 
ATOM      7  CD1 TRP F   1      -1.648  -6.252   5.716  0.00  0.00    +0.000 C 
ATOM      8  CD2 TRP F   1       0.558  -6.369   5.345  0.00  0.00    +0.000 A 
ATOM      9  NE1 TRP F   1      -1.462  -6.634   4.398  0.00  0.00    +0.000 NA
ATOM     10  CE2 TRP F   1      -0.115  -6.708   4.147  0.00  0.00    +0.000 A 
ATOM     11  CE3 TRP F   1       1.960  -6.365   5.355  0.00  0.00    +0.000 A 
ATOM     12  CZ2 TRP F   1       0.568  -7.038   2.969  0.00  0.00    +0.000 A 
ATOM     13  CZ3 TRP F   1       2.640  -6.694   4.172  0.00  0.00    +0.000 A 
ATOM     14  CH2 TRP F   1       1.943  -7.024   3.005  0.00  0.00    +0.000 A 
ATOM     15  N   VAL F   2       1.855  -5.718  10.260  0.00  0.00    +0.000 N 
ATOM     16  CA  VAL F   2       2.122  -4.937  11.460  0.00  0.00    +0.000 C 
ATOM     17  C   VAL F   2       1.535  -3.546  11.235  0.00  0.00    +0.000 C 
ATOM     18  O   VAL F   2       2.050  -2.769  10.426  0.00  0.00    +0.000 OA
ATOM     19  CB  VAL F   2       3.620  -4.879  11.762  0.00  0.00    +0.000 C 
ATOM     20  CG2 VAL F   2       3.911  -3.916  12.894  0.00  0.00    +0.000 C 
ATOM     21  CG1 VAL F   2       4.147  -6.283  12.071  0.00  0.00    +0.000 C 
ATOM     22  N   LEU F   3       0.443  -3.231  11.944  0.00  0.00    +0.000 N 
ATOM     23  CA  LEU F   3      -0.315  -2.010  11.674  0.00  0.00    +0.000 C 
ATOM     24  C   LEU F   3       0.284  -0.829  12.419  0.00  0.00    +0.000 C 
ATOM     25  O   LEU F   3       0.403  -0.883  13.652  0.00  0.00    +0.000 OA
ATOM     26  CB  LEU F   3      -1.770  -2.159  12.084  0.00  0.00    +0.000 C 
ATOM     27  CG  LEU F   3      -2.693  -3.159  11.405  0.00  0.00    +0.000 C 
ATOM     28  CD1 LEU F   3      -2.395  -3.261   9.913  0.00  0.00    +0.000 C 
ATOM     29  CD2 LEU F   3      -2.562  -4.485  12.100  0.00  0.00    +0.000 C 
ATOM     30  N   PRO F   4       0.647   0.249  11.734  0.00  0.00    +0.000 N 
ATOM     31  CA  PRO F   4       1.043   1.468  12.444  0.00  0.00    +0.000 C 
ATOM     32  C   PRO F   4      -0.163   2.161  13.067  0.00  0.00    +0.000 C 
ATOM     33  O   PRO F   4      -1.322   1.885  12.740  0.00  0.00    +0.000 OA
ATOM     34  CB  PRO F   4       1.686   2.333  11.353  0.00  0.00    +0.000 C 
ATOM     35  CG  PRO F   4       1.116   1.816  10.061  0.00  0.00    +0.000 C 
ATOM     36  CD  PRO F   4       0.746   0.372  10.267  0.00  0.00    +0.000 C 
ATOM     37  N   ALA F   5       0.136   3.062  14.002  0.00  0.00    +0.000 N 
ATOM     38  CA  ALA F   5      -0.894   3.848  14.669  0.00  0.00    +0.000 C 
ATOM     39  C   ALA F   5      -1.812   4.511  13.650  0.00  0.00    +0.000 C 
ATOM     40  O   ALA F   5      -1.350   5.143  12.699  0.00  0.00    +0.000 OA
ATOM     41  CB  ALA F   5      -0.242   4.906  15.564  0.00  0.00    +0.000 C 
ATOM     42  N   GLY F   6      -3.118   4.340  13.846  0.00  0.00    +0.000 N 
ATOM     43  CA  GLY F   6      -4.109   4.923  12.966  0.00  0.00    +0.000 C 
ATOM     44  C   GLY F   6      -4.555   4.051  11.810  0.00  0.00    +0.000 C 
ATOM     45  O   GLY F   6      -5.454   4.459  11.062  0.00  0.00    +0.000 OA
ATOM     46  N   ALA F   7      -3.967   2.871  11.634  0.00  0.00    +0.000 N 
ATOM     47  CA  ALA F   7      -4.317   1.980  10.536  0.00  0.00    +0.000 C 
ATOM     48  C   ALA F   7      -5.048   0.760  11.077  0.00  0.00    +0.000 C 
ATOM     49  O   ALA F   7      -4.605   0.144  12.053  0.00  0.00    +0.000 OA
ATOM     50  CB  ALA F   7      -3.072   1.549   9.755  0.00  0.00    +0.000 C 
ATOM     51  H   TRP F   1      -0.614  -8.293   7.733  0.00  0.00    +0.000 HD
ATOM     52  H   TRP F   1      -1.355  -7.674   9.090  0.00  0.00    +0.000 HD
ATOM     53  H   TRP F   1      -0.033  -8.676   9.246  0.00  0.00    +0.000 HD
ATOM     54  H   VAL F   2       2.575  -5.852   9.602  0.00  0.00    +0.000 HD
ATOM     55  H   LEU F   3       0.144  -3.834  12.662  0.00  0.00    +0.000 HD
ATOM     56  H   ALA F   5       1.079   3.201  14.249  0.00  0.00    +0.000 HD
ATOM     57  H   GLY F   6      -3.419   3.801  14.613  0.00  0.00    +0.000 HD
ATOM     58  H   ALA F   7      -3.270   2.589  12.269  0.00  0.00    +0.000 HD
TER 
REMARK  Name = /data/user_data/xianyang/t3-aimnet-affinity-balanced/L1/Q96MU7/pocket.pdb
REMARK                            x       y       z     vdW  Elec       q    Type
REMARK                         _______ _______ _______ _____ _____    ______ ____
ATOM      1  N   LEU G   1      -6.366  -1.872   4.902  0.00  0.00    +0.000 N 
ATOM      2  CA  LEU G   1      -5.496  -2.668   4.045  0.00  0.00    +0.000 C 
ATOM      3  C   LEU G   1      -6.180  -3.939   3.553  0.00  0.00    +0.000 C 
ATOM      4  O   LEU G   1      -5.513  -4.960   3.339  0.00  0.00    +0.000 OA
ATOM      5  CB  LEU G   1      -4.209  -3.025   4.787  0.00  0.00    +0.000 C 
ATOM      6  CG  LEU G   1      -3.522  -1.943   5.614  0.00  0.00    +0.000 C 
ATOM      7  CD2 LEU G   1      -2.321  -2.545   6.315  0.00  0.00    +0.000 C 
ATOM      8  CD1 LEU G   1      -3.114  -0.754   4.764  0.00  0.00    +0.000 C 
ATOM      9  H   LEU G   1      -7.221  -1.640   4.397  0.00  0.00    +0.000 HD
ATOM     10  H   LEU G   1      -5.886  -1.013   5.170  0.00  0.00    +0.000 HD
ATOM     11  H   LEU G   1      -6.600  -2.406   5.739  0.00  0.00    +0.000 HD
TER 
REMARK  Name = /data/user_data/xianyang/t3-aimnet-affinity-balanced/L1/Q96MU7/pocket.pdb
REMARK                            x       y       z     vdW  Elec       q    Type
REMARK                         _______ _______ _______ _____ _____    ______ ____
ATOM      1  N   GLY H   1       8.873  11.574  -2.398  0.00  0.00    +0.000 N 
ATOM      2  CA  GLY H   1       7.514  11.300  -2.811  0.00  0.00    +0.000 C 
ATOM      3  C   GLY H   1       6.764  10.597  -1.713  0.00  0.00    +0.000 C 
ATOM      4  O   GLY H   1       7.349   9.973  -0.821  0.00  0.00    +0.000 OA
ATOM      5  N   ALA H   2       5.443  10.701  -1.793  0.00  0.00    +0.000 N 
ATOM      6  CA  ALA H   2       4.558  10.012  -0.875  0.00  0.00    +0.000 C 
ATOM      7  C   ALA H   2       4.243   8.616  -1.402  0.00  0.00    +0.000 C 
ATOM      8  O   ALA H   2       4.530   8.282  -2.556  0.00  0.00    +0.000 OA
ATOM      9  CB  ALA H   2       3.270  10.817  -0.677  0.00  0.00    +0.000 C 
ATOM     10  N   ASP H   3       3.662   7.792  -0.531  0.00  0.00    +0.000 N 
ATOM     11  CA  ASP H   3       3.206   6.467  -0.921  0.00  0.00    +0.000 C 
ATOM     12  C   ASP H   3       2.271   6.572  -2.113  0.00  0.00    +0.000 C 
ATOM     13  O   ASP H   3       1.299   7.333  -2.088  0.00  0.00    +0.000 OA
ATOM     14  CB  ASP H   3       2.511   5.777   0.258  0.00  0.00    +0.000 C 
ATOM     15  CG  ASP H   3       2.079   4.353  -0.061  0.00  0.00    +0.000 C 
ATOM     16  OD1 ASP H   3       2.947   3.517  -0.392  0.00  0.00    +0.000 OA
ATOM     17  OD2 ASP H   3       0.867   4.064   0.026  0.00  0.00    +0.000 OA
ATOM     18  N   GLY H   4       2.609   5.855  -3.185  0.00  0.00    +0.000 N 
ATOM     19  CA  GLY H   4       1.821   5.865  -4.398  0.00  0.00    +0.000 C 
ATOM     20  C   GLY H   4       2.240   6.861  -5.458  0.00  0.00    +0.000 C 
ATOM     21  O   GLY H   4       1.620   6.882  -6.522  0.00  0.00    +0.000 OA
ATOM     22  H   GLY H   1       9.368  12.050  -3.152  0.00  0.00    +0.000 HD
ATOM     23  H   GLY H   1       9.346  10.697  -2.182  0.00  0.00    +0.000 HD
ATOM     24  H   GLY H   1       8.863  12.168  -1.569  0.00  0.00    +0.000 HD
ATOM     25  H   ALA H   2       5.052  11.265  -2.499  0.00  0.00    +0.000 HD
ATOM     26  H   ASP H   3       3.538   8.087   0.400  0.00  0.00    +0.000 HD
ATOM     27  H   GLY H   4       3.422   5.300  -3.150  0.00  0.00    +0.000 HD
TER 
