REMARK  Name = /data/user_data/xianyang/t3-aimnet-affinity-balanced/L4/Q08828/pocket.pdb
REMARK                            x       y       z     vdW  Elec       q    Type
REMARK                         _______ _______ _______ _____ _____    ______ ____
ATOM      1  N   PHE A   1     -24.885 -14.277 -30.531  0.00  0.00    +0.000 N 
ATOM      2  CA  PHE A   1     -23.738 -14.887 -31.188  0.00  0.00    +0.000 C 
ATOM      3  C   PHE A   1     -23.552 -14.230 -32.550  0.00  0.00    +0.000 C 
ATOM      4  O   PHE A   1     -24.520 -14.050 -33.300  0.00  0.00    +0.000 OA
ATOM      5  CB  PHE A   1     -23.922 -16.397 -31.357  0.00  0.00    +0.000 C 
ATOM      6  CG  PHE A   1     -23.493 -17.201 -30.164  0.00  0.00    +0.000 A 
ATOM      7  CD2 PHE A   1     -24.308 -17.297 -29.052  0.00  0.00    +0.000 A 
ATOM      8  CD1 PHE A   1     -22.278 -17.862 -30.158  0.00  0.00    +0.000 A 
ATOM      9  CE2 PHE A   1     -23.918 -18.036 -27.949  0.00  0.00    +0.000 A 
ATOM     10  CE1 PHE A   1     -21.880 -18.606 -29.062  0.00  0.00    +0.000 A 
ATOM     11  CZ  PHE A   1     -22.703 -18.694 -27.955  0.00  0.00    +0.000 A 
ATOM     12  H   PHE A   1     -24.728 -13.274 -30.435  0.00  0.00    +0.000 HD
ATOM     13  H   PHE A   1     -25.008 -14.692 -29.607  0.00  0.00    +0.000 HD
ATOM     14  H   PHE A   1     -25.723 -14.438 -31.090  0.00  0.00    +0.000 HD
TER 
REMARK  Name = /data/user_data/xianyang/t3-aimnet-affinity-balanced/L4/Q08828/pocket.pdb
REMARK                            x       y       z     vdW  Elec       q    Type
REMARK                         _______ _______ _______ _____ _____    ______ ____
ATOM      1  N   LEU B   1     -14.441 -17.118 -29.592  0.00  0.00    +0.000 N 
ATOM      2  CA  LEU B   1     -14.118 -18.454 -30.073  0.00  0.00    +0.000 C 
ATOM      3  C   LEU B   1     -13.788 -18.362 -31.555  0.00  0.00    +0.000 C 
ATOM      4  O   LEU B   1     -14.683 -18.349 -32.402  0.00  0.00    +0.000 OA
ATOM      5  CB  LEU B   1     -15.281 -19.420 -29.834  0.00  0.00    +0.000 C 
ATOM      6  CG  LEU B   1     -15.780 -19.517 -28.393  0.00  0.00    +0.000 C 
ATOM      7  CD1 LEU B   1     -16.978 -20.450 -28.299  0.00  0.00    +0.000 C 
ATOM      8  CD2 LEU B   1     -14.664 -19.970 -27.470  0.00  0.00    +0.000 C 
ATOM      9  H   LEU B   1     -13.652 -16.495 -29.763  0.00  0.00    +0.000 HD
ATOM     10  H   LEU B   1     -14.635 -17.155 -28.591  0.00  0.00    +0.000 HD
ATOM     11  H   LEU B   1     -15.263 -16.769 -30.085  0.00  0.00    +0.000 HD
TER 
REMARK  Name = /data/user_data/xianyang/t3-aimnet-affinity-balanced/L4/Q08828/pocket.pdb
REMARK                            x       y       z     vdW  Elec       q    Type
REMARK                         _______ _______ _______ _____ _____    ______ ____
ATOM      1  N   TYR C   1     -19.577 -13.512 -28.990  0.00  0.00    +0.000 N 
ATOM      2  CA  TYR C   1     -20.890 -13.609 -28.368  0.00  0.00    +0.000 C 
ATOM      3  C   TYR C   1     -20.889 -12.833 -27.061  0.00  0.00    +0.000 C 
ATOM      4  O   TYR C   1     -19.899 -12.817 -26.326  0.00  0.00    +0.000 OA
ATOM      5  CB  TYR C   1     -21.318 -15.066 -28.160  0.00  0.00    +0.000 C 
ATOM      6  CG  TYR C   1     -20.578 -15.830 -27.091  0.00  0.00    +0.000 A 
ATOM      7  CD1 TYR C   1     -19.338 -16.397 -27.348  0.00  0.00    +0.000 A 
ATOM      8  CD2 TYR C   1     -21.143 -16.030 -25.835  0.00  0.00    +0.000 A 
ATOM      9  CE1 TYR C   1     -18.668 -17.125 -26.372  0.00  0.00    +0.000 A 
ATOM     10  CE2 TYR C   1     -20.482 -16.761 -24.862  0.00  0.00    +0.000 A 
ATOM     11  CZ  TYR C   1     -19.244 -17.307 -25.134  0.00  0.00    +0.000 A 
ATOM     12  OH  TYR C   1     -18.587 -18.036 -24.170  0.00  0.00    +0.000 OA
ATOM     13  H   TYR C   1     -19.577 -14.033 -29.867  0.00  0.00    +0.000 HD
ATOM     14  H   TYR C   1     -18.874 -13.903 -28.363  0.00  0.00    +0.000 HD
ATOM     15  H   TYR C   1     -19.360 -12.533 -29.176  0.00  0.00    +0.000 HD
ATOM     16  H   TYR C   1     -17.746 -18.407 -24.355  0.00  0.00    +0.000 HD
TER 
REMARK  Name = /data/user_data/xianyang/t3-aimnet-affinity-balanced/L4/Q08828/pocket.pdb
REMARK                            x       y       z     vdW  Elec       q    Type
REMARK                         _______ _______ _______ _____ _____    ______ ____
ATOM      1  N   ASP D   1     -17.774 -17.066 -18.240  0.00  0.00    +0.000 N 
ATOM      2  CA  ASP D   1     -18.540 -17.749 -19.275  0.00  0.00    +0.000 C 
ATOM      3  C   ASP D   1     -19.974 -17.923 -18.809  0.00  0.00    +0.000 C 
ATOM      4  O   ASP D   1     -20.307 -17.678 -17.642  0.00  0.00    +0.000 OA
ATOM      5  CB  ASP D   1     -17.896 -19.106 -19.604  0.00  0.00    +0.000 C 
ATOM      6  CG  ASP D   1     -18.205 -19.570 -21.021  0.00  0.00    +0.000 C 
ATOM      7  OD1 ASP D   1     -19.064 -18.946 -21.681  0.00  0.00    +0.000 OA
ATOM      8  OD2 ASP D   1     -17.575 -20.550 -21.469  0.00  0.00    +0.000 OA
ATOM      9  N   VAL D   2     -20.820 -18.336 -19.734  0.00  0.00    +0.000 N 
ATOM     10  CA  VAL D   2     -22.226 -18.576 -19.465  0.00  0.00    +0.000 C 
ATOM     11  C   VAL D   2     -22.589 -19.965 -19.973  0.00  0.00    +0.000 C 
ATOM     12  O   VAL D   2     -22.021 -20.448 -20.958  0.00  0.00    +0.000 OA
ATOM     13  CB  VAL D   2     -23.133 -17.511 -20.113  0.00  0.00    +0.000 C 
ATOM     14  CG2 VAL D   2     -22.919 -16.161 -19.458  0.00  0.00    +0.000 C 
ATOM     15  CG1 VAL D   2     -22.868 -17.430 -21.609  0.00  0.00    +0.000 C 
ATOM     16  N   TRP D   3     -23.552 -20.596 -19.301  0.00  0.00    +0.000 N 
ATOM     17  CA  TRP D   3     -23.993 -21.937 -19.643  0.00  0.00    +0.000 C 
ATOM     18  C   TRP D   3     -25.504 -22.016 -19.485  0.00  0.00    +0.000 C 
ATOM     19  O   TRP D   3     -26.060 -21.540 -18.496  0.00  0.00    +0.000 OA
ATOM     20  CB  TRP D   3     -23.325 -22.994 -18.747  0.00  0.00    +0.000 C 
ATOM     21  CG  TRP D   3     -21.835 -22.902 -18.675  0.00  0.00    +0.000 C 
ATOM     22  CD1 TRP D   3     -20.939 -23.519 -19.487  0.00  0.00    +0.000 C 
ATOM     23  CD2 TRP D   3     -21.070 -22.146 -17.738  0.00  0.00    +0.000 C 
ATOM     24  NE1 TRP D   3     -19.660 -23.199 -19.121  0.00  0.00    +0.000 NA
ATOM     25  CE2 TRP D   3     -19.701 -22.351 -18.046  0.00  0.00    +0.000 C 
ATOM     26  CE3 TRP D   3     -21.393 -21.311 -16.665  0.00  0.00    +0.000 C 
ATOM     27  CZ2 TRP D   3     -18.683 -21.750 -17.324  0.00  0.00    +0.000 C 
ATOM     28  CZ3 TRP D   3     -20.372 -20.720 -15.944  0.00  0.00    +0.000 C 
ATOM     29  CH2 TRP D   3     -19.029 -20.944 -16.279  0.00  0.00    +0.000 C 
ATOM     30  N   SER D   4     -26.132 -22.618 -20.455  0.00  0.00    +0.000 N 
ATOM     31  CA  SER D   4     -27.557 -22.912 -20.423  0.00  0.00    +0.000 C 
ATOM     32  C   SER D   4     -27.963 -23.457 -21.781  0.00  0.00    +0.000 C 
ATOM     33  O   SER D   4     -27.227 -23.332 -22.763  0.00  0.00    +0.000 OA
ATOM     34  CB  SER D   4     -28.405 -21.673 -20.082  0.00  0.00    +0.000 C 
ATOM     35  OG  SER D   4     -28.329 -20.705 -21.117  0.00  0.00    +0.000 OA
ATOM     36  N   ASN D   5     -29.145 -24.057 -21.841  0.00  0.00    +0.000 N 
ATOM     37  CA  ASN D   5     -29.698 -24.476 -23.117  0.00  0.00    +0.000 C 
ATOM     38  C   ASN D   5     -30.060 -23.288 -23.997  0.00  0.00    +0.000 C 
ATOM     39  O   ASN D   5     -30.025 -23.395 -25.225  0.00  0.00    +0.000 OA
ATOM     40  CB  ASN D   5     -30.925 -25.360 -22.894  0.00  0.00    +0.000 C 
ATOM     41  CG  ASN D   5     -30.560 -26.737 -22.381  0.00  0.00    +0.000 C 
ATOM     42  OD1 ASN D   5     -29.455 -27.220 -22.601  0.00  0.00    +0.000 OA
ATOM     43  ND2 ASN D   5     -31.497 -27.379 -21.695  0.00  0.00    +0.000 N 
ATOM     44  N   ASP D   6     -30.408 -22.163 -23.385  0.00  0.00    +0.000 N 
ATOM     45  CA  ASP D   6     -30.700 -20.975 -24.176  0.00  0.00    +0.000 C 
ATOM     46  C   ASP D   6     -29.452 -20.458 -24.881  0.00  0.00    +0.000 C 
ATOM     47  O   ASP D   6     -29.540 -19.947 -26.003  0.00  0.00    +0.000 OA
ATOM     48  CB  ASP D   6     -31.300 -19.883 -23.289  0.00  0.00    +0.000 C 
ATOM     49  CG  ASP D   6     -32.674 -20.257 -22.763  0.00  0.00    +0.000 C 
ATOM     50  OD1 ASP D   6     -33.400 -20.992 -23.458  0.00  0.00    +0.000 OA
ATOM     51  OD2 ASP D   6     -33.026 -19.804 -21.654  0.00  0.00    +0.000 OA
ATOM     52  N   VAL D   7     -28.295 -20.574 -24.247  0.00  0.00    +0.000 N 
ATOM     53  CA  VAL D   7     -27.060 -20.172 -24.899  0.00  0.00    +0.000 C 
ATOM     54  C   VAL D   7     -26.770 -21.089 -26.085  0.00  0.00    +0.000 C 
ATOM     55  O   VAL D   7     -26.339 -20.633 -27.150  0.00  0.00    +0.000 OA
ATOM     56  CB  VAL D   7     -25.899 -20.180 -23.890  0.00  0.00    +0.000 C 
ATOM     57  CG1 VAL D   7     -24.600 -19.782 -24.565  0.00  0.00    +0.000 C 
ATOM     58  CG2 VAL D   7     -26.207 -19.237 -22.737  0.00  0.00    +0.000 C 
ATOM     59  N   THR D   8     -27.000 -22.380 -25.906  0.00  0.00    +0.000 N 
ATOM     60  CA  THR D   8     -26.827 -23.304 -27.016  0.00  0.00    +0.000 C 
ATOM     61  C   THR D   8     -27.792 -22.984 -28.149  0.00  0.00    +0.000 C 
ATOM     62  O   THR D   8     -27.422 -23.038 -29.328  0.00  0.00    +0.000 OA
ATOM     63  CB  THR D   8     -27.017 -24.744 -26.532  0.00  0.00    +0.000 C 
ATOM     64  OG1 THR D   8     -26.107 -25.008 -25.452  0.00  0.00    +0.000 OA
ATOM     65  CG2 THR D   8     -26.765 -25.725 -27.659  0.00  0.00    +0.000 C 
ATOM     66  H   ASP D   1     -16.810 -16.949 -18.552  0.00  0.00    +0.000 HD
ATOM     67  H   ASP D   1     -17.789 -17.621 -17.384  0.00  0.00    +0.000 HD
ATOM     68  H   ASP D   1     -18.187 -16.151 -18.059  0.00  0.00    +0.000 HD
ATOM     69  H   VAL D   2     -20.483 -18.488 -20.646  0.00  0.00    +0.000 HD
ATOM     70  H   TRP D   3     -23.981 -20.135 -18.544  0.00  0.00    +0.000 HD
ATOM     71  H   SER D   4     -25.617 -22.888 -21.249  0.00  0.00    +0.000 HD
ATOM     72  H   SER D   4     -28.669 -21.086 -21.942  0.00  0.00    +0.000 HD
ATOM     73  H   ASN D   5     -29.652 -24.220 -21.013  0.00  0.00    +0.000 HD
ATOM     74  H   ASN D   5     -32.372 -26.955 -21.541  0.00  0.00    +0.000 HD
ATOM     75  H   ASN D   5     -31.317 -28.280 -21.340  0.00  0.00    +0.000 HD
ATOM     76  H   ASP D   6     -30.468 -22.131 -22.403  0.00  0.00    +0.000 HD
ATOM     77  H   VAL D   7     -28.272 -20.934 -23.331  0.00  0.00    +0.000 HD
ATOM     78  H   THR D   8     -27.287 -22.714 -25.025  0.00  0.00    +0.000 HD
ATOM     79  H   THR D   8     -25.195 -24.898 -25.763  0.00  0.00    +0.000 HD
TER 
REMARK  Name = /data/user_data/xianyang/t3-aimnet-affinity-balanced/L4/Q08828/pocket.pdb
REMARK                            x       y       z     vdW  Elec       q    Type
REMARK                         _______ _______ _______ _____ _____    ______ ____
ATOM      1  N   ASN E   1     -26.547 -20.085 -30.110  0.00  0.00    +0.000 N 
ATOM      2  CA  ASN E   1     -25.501 -20.499 -31.035  0.00  0.00    +0.000 C 
ATOM      3  C   ASN E   1     -26.100 -21.153 -32.277  0.00  0.00    +0.000 C 
ATOM      4  O   ASN E   1     -25.630 -20.936 -33.401  0.00  0.00    +0.000 OA
ATOM      5  CB  ASN E   1     -24.538 -21.450 -30.318  0.00  0.00    +0.000 C 
ATOM      6  CG  ASN E   1     -23.271 -21.709 -31.114  0.00  0.00    +0.000 C 
ATOM      7  OD1 ASN E   1     -23.139 -21.317 -32.268  0.00  0.00    +0.000 OA
ATOM      8  ND2 ASN E   1     -22.316 -22.370 -30.484  0.00  0.00    +0.000 N 
ATOM      9  H   ASN E   1     -27.190 -19.451 -30.585  0.00  0.00    +0.000 HD
ATOM     10  H   ASN E   1     -26.126 -19.608 -29.313  0.00  0.00    +0.000 HD
ATOM     11  H   ASN E   1     -27.057 -20.906 -29.784  0.00  0.00    +0.000 HD
ATOM     12  H   ASN E   1     -21.469 -22.570 -30.945  0.00  0.00    +0.000 HD
ATOM     13  H   ASN E   1     -22.451 -22.663 -29.554  0.00  0.00    +0.000 HD
TER 
REMARK  Name = /data/user_data/xianyang/t3-aimnet-affinity-balanced/L4/Q08828/pocket.pdb
REMARK                            x       y       z     vdW  Elec       q    Type
REMARK                         _______ _______ _______ _____ _____    ______ ____
ATOM      1  N   SER F   1     -12.614 -33.439 -25.162  0.00  0.00    +0.000 N 
ATOM      2  CA  SER F   1     -14.040 -33.169 -25.054  0.00  0.00    +0.000 C 
ATOM      3  C   SER F   1     -14.751 -34.347 -24.405  0.00  0.00    +0.000 C 
ATOM      4  O   SER F   1     -14.260 -35.478 -24.412  0.00  0.00    +0.000 OA
ATOM      5  CB  SER F   1     -14.647 -32.878 -26.427  0.00  0.00    +0.000 C 
ATOM      6  OG  SER F   1     -13.993 -31.793 -27.061  0.00  0.00    +0.000 OA
ATOM      7  N   ILE F   2     -15.908 -34.068 -23.829  0.00  0.00    +0.000 N 
ATOM      8  CA  ILE F   2     -16.793 -35.078 -23.265  0.00  0.00    +0.000 C 
ATOM      9  C   ILE F   2     -18.099 -35.002 -24.045  0.00  0.00    +0.000 C 
ATOM     10  O   ILE F   2     -19.003 -34.244 -23.681  0.00  0.00    +0.000 OA
ATOM     11  CB  ILE F   2     -17.017 -34.857 -21.759  0.00  0.00    +0.000 C 
ATOM     12  CG1 ILE F   2     -15.674 -34.775 -21.027  0.00  0.00    +0.000 C 
ATOM     13  CG2 ILE F   2     -17.856 -35.979 -21.178  0.00  0.00    +0.000 C 
ATOM     14  CD1 ILE F   2     -15.807 -34.477 -19.545  0.00  0.00    +0.000 C 
ATOM     15  N   PRO F   3     -18.225 -35.752 -25.130  0.00  0.00    +0.000 N 
ATOM     16  CA  PRO F   3     -19.412 -35.589 -25.986  0.00  0.00    +0.000 C 
ATOM     17  C   PRO F   3     -20.719 -35.942 -25.292  0.00  0.00    +0.000 C 
ATOM     18  O   PRO F   3     -21.725 -35.253 -25.494  0.00  0.00    +0.000 OA
ATOM     19  CB  PRO F   3     -19.128 -36.535 -27.158  0.00  0.00    +0.000 C 
ATOM     20  CG  PRO F   3     -17.652 -36.704 -27.168  0.00  0.00    +0.000 C 
ATOM     21  CD  PRO F   3     -17.241 -36.670 -25.727  0.00  0.00    +0.000 C 
ATOM     22  N   ASN F   4     -20.731 -36.984 -24.475  0.00  0.00    +0.000 N 
ATOM     23  CA  ASN F   4     -21.965 -37.383 -23.820  0.00  0.00    +0.000 C 
ATOM     24  C   ASN F   4     -22.345 -36.477 -22.656  0.00  0.00    +0.000 C 
ATOM     25  O   ASN F   4     -23.426 -36.655 -22.086  0.00  0.00    +0.000 OA
ATOM     26  CB  ASN F   4     -21.875 -38.831 -23.331  0.00  0.00    +0.000 C 
ATOM     27  CG  ASN F   4     -20.736 -39.052 -22.364  0.00  0.00    +0.000 C 
ATOM     28  OD1 ASN F   4     -19.725 -38.360 -22.401  0.00  0.00    +0.000 OA
ATOM     29  ND2 ASN F   4     -20.897 -40.042 -21.487  0.00  0.00    +0.000 N 
ATOM     30  N   PHE F   5     -21.501 -35.519 -22.278  0.00  0.00    +0.000 N 
ATOM     31  CA  PHE F   5     -21.899 -34.543 -21.276  0.00  0.00    +0.000 C 
ATOM     32  C   PHE F   5     -23.011 -33.640 -21.793  0.00  0.00    +0.000 C 
ATOM     33  O   PHE F   5     -23.802 -33.121 -21.003  0.00  0.00    +0.000 OA
ATOM     34  CB  PHE F   5     -20.700 -33.703 -20.833  0.00  0.00    +0.000 C 
ATOM     35  CG  PHE F   5     -20.975 -32.848 -19.623  0.00  0.00    +0.000 A 
ATOM     36  CD2 PHE F   5     -20.831 -33.377 -18.350  0.00  0.00    +0.000 A 
ATOM     37  CD1 PHE F   5     -21.372 -31.526 -19.756  0.00  0.00    +0.000 A 
ATOM     38  CE2 PHE F   5     -21.073 -32.605 -17.230  0.00  0.00    +0.000 A 
ATOM     39  CE1 PHE F   5     -21.619 -30.747 -18.637  0.00  0.00    +0.000 A 
ATOM     40  CZ  PHE F   5     -21.466 -31.285 -17.374  0.00  0.00    +0.000 A 
ATOM     41  N   ASN F   6     -23.091 -33.456 -23.102  0.00  0.00    +0.000 N 
ATOM     42  CA  ASN F   6     -24.190 -32.683 -23.660  0.00  0.00    +0.000 C 
ATOM     43  C   ASN F   6     -25.534 -33.324 -23.336  0.00  0.00    +0.000 C 
ATOM     44  O   ASN F   6     -26.517 -32.621 -23.077  0.00  0.00    +0.000 OA
ATOM     45  CB  ASN F   6     -24.017 -32.551 -25.178  0.00  0.00    +0.000 C 
ATOM     46  CG  ASN F   6     -24.999 -31.570 -25.776  0.00  0.00    +0.000 C 
ATOM     47  OD1 ASN F   6     -25.386 -30.594 -25.145  0.00  0.00    +0.000 OA
ATOM     48  ND2 ASN F   6     -25.398 -31.823 -27.014  0.00  0.00    +0.000 N 
ATOM     49  H   SER F   1     -12.149 -32.643 -25.598  0.00  0.00    +0.000 HD
ATOM     50  H   SER F   1     -12.468 -34.272 -25.732  0.00  0.00    +0.000 HD
ATOM     51  H   SER F   1     -12.225 -33.592 -24.231  0.00  0.00    +0.000 HD
ATOM     52  H   SER F   1     -13.057 -32.011 -27.191  0.00  0.00    +0.000 HD
ATOM     53  H   ILE F   2     -16.187 -33.125 -23.779  0.00  0.00    +0.000 HD
ATOM     54  H   ASN F   4     -19.902 -37.489 -24.311  0.00  0.00    +0.000 HD
ATOM     55  H   ASN F   4     -21.725 -40.574 -21.492  0.00  0.00    +0.000 HD
ATOM     56  H   ASN F   4     -20.187 -40.242 -20.834  0.00  0.00    +0.000 HD
ATOM     57  H   PHE F   5     -20.603 -35.471 -22.679  0.00  0.00    +0.000 HD
ATOM     58  H   ASN F   6     -22.408 -33.842 -23.697  0.00  0.00    +0.000 HD
ATOM     59  H   ASN F   6     -25.063 -32.619 -27.486  0.00  0.00    +0.000 HD
ATOM     60  H   ASN F   6     -26.030 -31.215 -27.462  0.00  0.00    +0.000 HD
TER 
REMARK  Name = /data/user_data/xianyang/t3-aimnet-affinity-balanced/L4/Q08828/pocket.pdb
REMARK                            x       y       z     vdW  Elec       q    Type
REMARK                         _______ _______ _______ _____ _____    ______ ____
ATOM      1  N   TYR G   1     -26.334 -32.732 -19.388  0.00  0.00    +0.000 N 
ATOM      2  CA  TYR G   1     -26.763 -31.409 -18.950  0.00  0.00    +0.000 C 
ATOM      3  C   TYR G   1     -28.241 -31.226 -19.274  0.00  0.00    +0.000 C 
ATOM      4  O   TYR G   1     -28.623 -31.090 -20.441  0.00  0.00    +0.000 OA
ATOM      5  CB  TYR G   1     -25.914 -30.328 -19.617  0.00  0.00    +0.000 C 
ATOM      6  CG  TYR G   1     -26.222 -28.928 -19.136  0.00  0.00    +0.000 A 
ATOM      7  CD2 TYR G   1     -25.670 -28.440 -17.959  0.00  0.00    +0.000 A 
ATOM      8  CD1 TYR G   1     -27.054 -28.093 -19.870  0.00  0.00    +0.000 A 
ATOM      9  CE2 TYR G   1     -25.946 -27.154 -17.515  0.00  0.00    +0.000 A 
ATOM     10  CE1 TYR G   1     -27.335 -26.805 -19.434  0.00  0.00    +0.000 A 
ATOM     11  CZ  TYR G   1     -26.777 -26.343 -18.263  0.00  0.00    +0.000 A 
ATOM     12  OH  TYR G   1     -27.050 -25.070 -17.836  0.00  0.00    +0.000 OA
ATOM     13  H   TYR G   1     -25.345 -32.857 -19.172  0.00  0.00    +0.000 HD
ATOM     14  H   TYR G   1     -26.476 -32.820 -20.394  0.00  0.00    +0.000 HD
ATOM     15  H   TYR G   1     -26.880 -33.444 -18.904  0.00  0.00    +0.000 HD
ATOM     16  H   TYR G   1     -27.613 -24.517 -18.341  0.00  0.00    +0.000 HD
TER 
REMARK  Name = /data/user_data/xianyang/t3-aimnet-affinity-balanced/L4/Q08828/pocket.pdb
REMARK                            x       y       z     vdW  Elec       q    Type
REMARK                         _______ _______ _______ _____ _____    ______ ____
ATOM      1  N   LEU H   1     -23.350 -28.415 -13.632  0.00  0.00    +0.000 N 
ATOM      2  CA  LEU H   1     -22.145 -27.605 -13.682  0.00  0.00    +0.000 C 
ATOM      3  C   LEU H   1     -21.249 -27.856 -12.477  0.00  0.00    +0.000 C 
ATOM      4  O   LEU H   1     -20.033 -27.681 -12.575  0.00  0.00    +0.000 OA
ATOM      5  CB  LEU H   1     -22.510 -26.122 -13.779  0.00  0.00    +0.000 C 
ATOM      6  CG  LEU H   1     -23.213 -25.704 -15.067  0.00  0.00    +0.000 C 
ATOM      7  CD2 LEU H   1     -23.502 -24.213 -15.055  0.00  0.00    +0.000 C 
ATOM      8  CD1 LEU H   1     -22.375 -26.074 -16.276  0.00  0.00    +0.000 C 
ATOM      9  H   LEU H   1     -23.924 -28.221 -14.452  0.00  0.00    +0.000 HD
ATOM     10  H   LEU H   1     -23.876 -28.190 -12.788  0.00  0.00    +0.000 HD
ATOM     11  H   LEU H   1     -23.096 -29.403 -13.621  0.00  0.00    +0.000 HD
TER 
REMARK  Name = /data/user_data/xianyang/t3-aimnet-affinity-balanced/L4/Q08828/pocket.pdb
REMARK                            x       y       z     vdW  Elec       q    Type
REMARK                         _______ _______ _______ _____ _____    ______ ____
ATOM      1  N   LEU I   1     -19.304 -30.775 -13.577  0.00  0.00    +0.000 N 
ATOM      2  CA  LEU I   1     -18.359 -30.327 -14.591  0.00  0.00    +0.000 C 
ATOM      3  C   LEU I   1     -17.217 -29.538 -13.958  0.00  0.00    +0.000 C 
ATOM      4  O   LEU I   1     -16.064 -29.650 -14.389  0.00  0.00    +0.000 OA
ATOM      5  CB  LEU I   1     -19.078 -29.482 -15.644  0.00  0.00    +0.000 C 
ATOM      6  CG  LEU I   1     -18.202 -28.945 -16.771  0.00  0.00    +0.000 C 
ATOM      7  CD2 LEU I   1     -17.552 -30.088 -17.535  0.00  0.00    +0.000 C 
ATOM      8  CD1 LEU I   1     -19.010 -28.065 -17.700  0.00  0.00    +0.000 C 
ATOM      9  H   LEU I   1     -20.057 -31.299 -14.022  0.00  0.00    +0.000 HD
ATOM     10  H   LEU I   1     -19.693 -29.966 -13.093  0.00  0.00    +0.000 HD
ATOM     11  H   LEU I   1     -18.824 -31.374 -12.906  0.00  0.00    +0.000 HD
TER 
REMARK  Name = /data/user_data/xianyang/t3-aimnet-affinity-balanced/L4/Q08828/pocket.pdb
REMARK                            x       y       z     vdW  Elec       q    Type
REMARK                         _______ _______ _______ _____ _____    ______ ____
ATOM      1  N   ILE J   1     -14.129 -24.854 -23.583  0.00  0.00    +0.000 N 
ATOM      2  CA  ILE J   1     -15.247 -24.576 -24.473  0.00  0.00    +0.000 C 
ATOM      3  C   ILE J   1     -16.356 -25.553 -24.110  0.00  0.00    +0.000 C 
ATOM      4  O   ILE J   1     -16.344 -26.709 -24.537  0.00  0.00    +0.000 OA
ATOM      5  CB  ILE J   1     -14.840 -24.719 -25.949  0.00  0.00    +0.000 C 
ATOM      6  CG1 ILE J   1     -13.562 -23.920 -26.218  0.00  0.00    +0.000 C 
ATOM      7  CG2 ILE J   1     -15.965 -24.243 -26.854  0.00  0.00    +0.000 C 
ATOM      8  CD1 ILE J   1     -12.954 -24.204 -27.577  0.00  0.00    +0.000 C 
ATOM      9  N   GLY J   2     -17.321 -25.085 -23.318  0.00  0.00    +0.000 N 
ATOM     10  CA  GLY J   2     -18.344 -25.965 -22.805  0.00  0.00    +0.000 C 
ATOM     11  C   GLY J   2     -17.732 -26.979 -21.862  0.00  0.00    +0.000 C 
ATOM     12  O   GLY J   2     -17.216 -26.622 -20.800  0.00  0.00    +0.000 OA
ATOM     13  N   SER J   3     -17.781 -28.230 -22.249  0.00  0.00    +0.000 N 
ATOM     14  CA  SER J   3     -17.104 -29.303 -21.538  0.00  0.00    +0.000 C 
ATOM     15  C   SER J   3     -15.836 -29.759 -22.259  0.00  0.00    +0.000 C 
ATOM     16  O   SER J   3     -15.349 -30.864 -21.998  0.00  0.00    +0.000 OA
ATOM     17  CB  SER J   3     -18.050 -30.490 -21.353  0.00  0.00    +0.000 C 
ATOM     18  OG  SER J   3     -18.515 -30.976 -22.591  0.00  0.00    +0.000 OA
ATOM     19  N   THR J   4     -15.296 -28.932 -23.125  0.00  0.00    +0.000 N 
ATOM     20  CA  THR J   4     -14.097 -29.252 -23.882  0.00  0.00    +0.000 C 
ATOM     21  C   THR J   4     -12.896 -28.565 -23.243  0.00  0.00    +0.000 C 
ATOM     22  O   THR J   4     -12.929 -27.366 -22.956  0.00  0.00    +0.000 OA
ATOM     23  CB  THR J   4     -14.239 -28.818 -25.344  0.00  0.00    +0.000 C 
ATOM     24  OG1 THR J   4     -15.363 -29.476 -25.938  0.00  0.00    +0.000 OA
ATOM     25  CG2 THR J   4     -12.982 -29.168 -26.123  0.00  0.00    +0.000 C 
ATOM     26  H   ILE J   1     -13.360 -24.218 -23.794  0.00  0.00    +0.000 HD
ATOM     27  H   ILE J   1     -13.820 -25.817 -23.716  0.00  0.00    +0.000 HD
ATOM     28  H   ILE J   1     -14.424 -24.722 -22.615  0.00  0.00    +0.000 HD
ATOM     29  H   GLY J   2     -17.336 -24.130 -23.081  0.00  0.00    +0.000 HD
ATOM     30  H   SER J   3     -18.299 -28.453 -23.056  0.00  0.00    +0.000 HD
ATOM     31  H   SER J   3     -17.762 -31.278 -23.123  0.00  0.00    +0.000 HD
ATOM     32  H   THR J   4     -15.722 -28.056 -23.268  0.00  0.00    +0.000 HD
ATOM     33  H   THR J   4     -15.228 -30.436 -25.910  0.00  0.00    +0.000 HD
TER 
REMARK  Name = /data/user_data/xianyang/t3-aimnet-affinity-balanced/L4/Q08828/pocket.pdb
REMARK                            x       y       z     vdW  Elec       q    Type
REMARK                         _______ _______ _______ _____ _____    ______ ____
ATOM      1  N   ARG K   1     -12.972 -37.757 -25.376  0.00  0.00    +0.000 N 
ATOM      2  CA  ARG K   1     -12.541 -37.770 -26.770  0.00  0.00    +0.000 C 
ATOM      3  C   ARG K   1     -11.479 -36.704 -26.943  0.00  0.00    +0.000 C 
ATOM      4  O   ARG K   1     -11.718 -35.528 -26.630  0.00  0.00    +0.000 OA
ATOM      5  CB  ARG K   1     -13.717 -37.513 -27.714  0.00  0.00    +0.000 C 
ATOM      6  CG  ARG K   1     -13.377 -37.623 -29.192  0.00  0.00    +0.000 C 
ATOM      7  CD  ARG K   1     -14.586 -37.258 -30.039  0.00  0.00    +0.000 C 
ATOM      8  NE  ARG K   1     -14.981 -35.864 -29.838  0.00  0.00    +0.000 N 
ATOM      9  CZ  ARG K   1     -16.139 -35.336 -30.226  0.00  0.00    +0.000 C 
ATOM     10  NH1 ARG K   1     -17.037 -36.088 -30.841  0.00  0.00    +0.000 N 
ATOM     11  NH2 ARG K   1     -16.396 -34.058 -30.000  0.00  0.00    +0.000 N 
ATOM     12  H   ARG K   1     -13.689 -38.469 -25.235  0.00  0.00    +0.000 HD
ATOM     13  H   ARG K   1     -13.354 -36.839 -25.147  0.00  0.00    +0.000 HD
ATOM     14  H   ARG K   1     -12.174 -37.954 -24.772  0.00  0.00    +0.000 HD
ATOM     15  H   ARG K   1     -14.341 -35.271 -29.381  0.00  0.00    +0.000 HD
ATOM     16  H   ARG K   1     -17.894 -35.697 -31.128  0.00  0.00    +0.000 HD
ATOM     17  H   ARG K   1     -16.849 -37.039 -31.012  0.00  0.00    +0.000 HD
ATOM     18  H   ARG K   1     -17.254 -33.670 -30.288  0.00  0.00    +0.000 HD
ATOM     19  H   ARG K   1     -15.730 -33.495 -29.544  0.00  0.00    +0.000 HD
TER 
REMARK  Name = /data/user_data/xianyang/t3-aimnet-affinity-balanced/L4/Q08828/pocket.pdb
REMARK                            x       y       z     vdW  Elec       q    Type
REMARK                         _______ _______ _______ _____ _____    ______ ____
ATOM      1  N   ASP L   1     -10.536 -33.570 -32.878  0.00  0.00    +0.000 N 
ATOM      2  CA  ASP L   1     -11.474 -33.885 -31.808  0.00  0.00    +0.000 C 
ATOM      3  C   ASP L   1     -12.886 -34.093 -32.352  0.00  0.00    +0.000 C 
ATOM      4  O   ASP L   1     -13.549 -35.078 -32.006  0.00  0.00    +0.000 OA
ATOM      5  CB  ASP L   1     -11.449 -32.768 -30.760  0.00  0.00    +0.000 C 
ATOM      6  CG  ASP L   1     -12.542 -32.917 -29.720  0.00  0.00    +0.000 C 
ATOM      7  OD1 ASP L   1     -12.927 -34.061 -29.403  0.00  0.00    +0.000 OA
ATOM      8  OD2 ASP L   1     -13.017 -31.873 -29.217  0.00  0.00    +0.000 OA
ATOM      9  H   ASP L   1     -10.553 -34.314 -33.575  0.00  0.00    +0.000 HD
ATOM     10  H   ASP L   1      -9.595 -33.487 -32.492  0.00  0.00    +0.000 HD
ATOM     11  H   ASP L   1     -10.803 -32.688 -33.315  0.00  0.00    +0.000 HD
TER 
REMARK  Name = /data/user_data/xianyang/t3-aimnet-affinity-balanced/L4/Q08828/pocket.pdb
REMARK                            x       y       z     vdW  Elec       q    Type
REMARK                         _______ _______ _______ _____ _____    ______ ____
ATOM      1  N   TYR M   1     -22.907 -31.327 -33.413  0.00  0.00    +0.000 N 
ATOM      2  CA  TYR M   1     -22.112 -30.516 -32.505  0.00  0.00    +0.000 C 
ATOM      3  C   TYR M   1     -22.473 -29.047 -32.710  0.00  0.00    +0.000 C 
ATOM      4  O   TYR M   1     -22.260 -28.490 -33.787  0.00  0.00    +0.000 OA
ATOM      5  CB  TYR M   1     -20.625 -30.764 -32.748  0.00  0.00    +0.000 C 
ATOM      6  CG  TYR M   1     -19.719 -30.195 -31.688  0.00  0.00    +0.000 A 
ATOM      7  CD2 TYR M   1     -19.479 -30.886 -30.506  0.00  0.00    +0.000 A 
ATOM      8  CD1 TYR M   1     -19.090 -28.974 -31.875  0.00  0.00    +0.000 A 
ATOM      9  CE2 TYR M   1     -18.639 -30.372 -29.534  0.00  0.00    +0.000 A 
ATOM     10  CE1 TYR M   1     -18.249 -28.454 -30.906  0.00  0.00    +0.000 A 
ATOM     11  CZ  TYR M   1     -18.026 -29.156 -29.739  0.00  0.00    +0.000 A 
ATOM     12  OH  TYR M   1     -17.190 -28.638 -28.779  0.00  0.00    +0.000 OA
ATOM     13  N   LEU M   2     -23.006 -28.427 -31.661  0.00  0.00    +0.000 N 
ATOM     14  CA  LEU M   2     -23.603 -27.111 -31.799  0.00  0.00    +0.000 C 
ATOM     15  C   LEU M   2     -22.621 -25.955 -31.607  0.00  0.00    +0.000 C 
ATOM     16  O   LEU M   2     -22.795 -24.917 -32.252  0.00  0.00    +0.000 OA
ATOM     17  CB  LEU M   2     -24.775 -26.965 -30.828  0.00  0.00    +0.000 C 
ATOM     18  CG  LEU M   2     -25.893 -27.997 -30.971  0.00  0.00    +0.000 C 
ATOM     19  CD2 LEU M   2     -26.985 -27.739 -29.951  0.00  0.00    +0.000 C 
ATOM     20  CD1 LEU M   2     -26.442 -27.995 -32.384  0.00  0.00    +0.000 C 
ATOM     21  N   PRO M   3     -21.612 -26.042 -30.726  0.00  0.00    +0.000 N 
ATOM     22  CA  PRO M   3     -20.733 -24.889 -30.544  0.00  0.00    +0.000 C 
ATOM     23  C   PRO M   3     -20.032 -24.491 -31.834  0.00  0.00    +0.000 C 
ATOM     24  O   PRO M   3     -19.782 -25.320 -32.711  0.00  0.00    +0.000 OA
ATOM     25  CB  PRO M   3     -19.725 -25.368 -29.493  0.00  0.00    +0.000 C 
ATOM     26  CG  PRO M   3     -20.432 -26.435 -28.754  0.00  0.00    +0.000 C 
ATOM     27  CD  PRO M   3     -21.287 -27.125 -29.779  0.00  0.00    +0.000 C 
ATOM     28  N   SER M   4     -19.713 -23.208 -31.908  0.00  0.00    +0.000 N 
ATOM     29  CA  SER M   4     -19.058 -22.681 -33.091  0.00  0.00    +0.000 C 
ATOM     30  C   SER M   4     -17.664 -23.278 -33.232  0.00  0.00    +0.000 C 
ATOM     31  O   SER M   4     -16.934 -23.435 -32.257  0.00  0.00    +0.000 OA
ATOM     32  CB  SER M   4     -18.978 -21.160 -33.020  0.00  0.00    +0.000 C 
ATOM     33  OG  SER M   4     -20.270 -20.589 -32.949  0.00  0.00    +0.000 OA
ATOM     34  H   TYR M   1     -22.673 -32.311 -33.283  0.00  0.00    +0.000 HD
ATOM     35  H   TYR M   1     -22.708 -31.054 -34.375  0.00  0.00    +0.000 HD
ATOM     36  H   TYR M   1     -23.898 -31.185 -33.217  0.00  0.00    +0.000 HD
ATOM     37  H   TYR M   1     -16.773 -27.811 -28.918  0.00  0.00    +0.000 HD
ATOM     38  H   LEU M   2     -22.996 -28.866 -30.780  0.00  0.00    +0.000 HD
ATOM     39  H   SER M   4     -19.921 -22.608 -31.156  0.00  0.00    +0.000 HD
ATOM     40  H   SER M   4     -20.774 -20.829 -33.743  0.00  0.00    +0.000 HD
TER 
