REMARK  Name = /data/user_data/xianyang/t3-aimnet-affinity-balanced/L3/Q9UKS7/pocket.pdb
REMARK                            x       y       z     vdW  Elec       q    Type
REMARK                         _______ _______ _______ _____ _____    ______ ____
ATOM      1  N   ARG A   1      18.753 -18.765 -13.998  0.00  0.00    +0.000 N 
ATOM      2  CA  ARG A   1      18.913 -17.979 -15.246  0.00  0.00    +0.000 C 
ATOM      3  C   ARG A   1      20.339 -18.102 -15.764  0.00  0.00    +0.000 C 
ATOM      4  O   ARG A   1      21.259 -18.410 -15.007  0.00  0.00    +0.000 OA
ATOM      5  CB  ARG A   1      18.524 -16.522 -14.989  0.00  0.00    +0.000 C 
ATOM      6  CG  ARG A   1      17.023 -16.373 -14.786  0.00  0.00    +0.000 C 
ATOM      7  CD  ARG A   1      16.556 -14.940 -14.954  0.00  0.00    +0.000 C 
ATOM      8  NE  ARG A   1      15.329 -14.694 -14.213  0.00  0.00    +0.000 N 
ATOM      9  CZ  ARG A   1      14.706 -13.526 -14.139  0.00  0.00    +0.000 C 
ATOM     10  NH1 ARG A   1      15.309 -12.419 -14.538  0.00  0.00    +0.000 N 
ATOM     11  NH2 ARG A   1      13.470 -13.473 -13.668  0.00  0.00    +0.000 N 
ATOM     12  N   PRO A   2      20.552 -17.900 -17.083  0.00  0.00    +0.000 N 
ATOM     13  CA  PRO A   2      21.886 -18.015 -17.654  0.00  0.00    +0.000 C 
ATOM     14  C   PRO A   2      22.736 -16.746 -17.527  0.00  0.00    +0.000 C 
ATOM     15  O   PRO A   2      23.956 -16.882 -17.426  0.00  0.00    +0.000 OA
ATOM     16  CB  PRO A   2      21.606 -18.447 -19.105  0.00  0.00    +0.000 C 
ATOM     17  CG  PRO A   2      20.254 -17.881 -19.418  0.00  0.00    +0.000 C 
ATOM     18  CD  PRO A   2      19.507 -17.764 -18.108  0.00  0.00    +0.000 C 
ATOM     19  N   PHE A   3      22.137 -15.544 -17.558  0.00  0.00    +0.000 N 
ATOM     20  CA  PHE A   3      22.951 -14.340 -17.701  0.00  0.00    +0.000 C 
ATOM     21  C   PHE A   3      22.902 -13.581 -16.390  0.00  0.00    +0.000 C 
ATOM     22  O   PHE A   3      21.818 -13.210 -15.942  0.00  0.00    +0.000 OA
ATOM     23  CB  PHE A   3      22.478 -13.433 -18.847  0.00  0.00    +0.000 C 
ATOM     24  CG  PHE A   3      22.502 -14.156 -20.171  0.00  0.00    +0.000 A 
ATOM     25  CD1 PHE A   3      23.720 -14.476 -20.781  0.00  0.00    +0.000 A 
ATOM     26  CD2 PHE A   3      21.334 -14.635 -20.728  0.00  0.00    +0.000 A 
ATOM     27  CE1 PHE A   3      23.743 -15.190 -21.967  0.00  0.00    +0.000 A 
ATOM     28  CE2 PHE A   3      21.367 -15.382 -21.898  0.00  0.00    +0.000 A 
ATOM     29  CZ  PHE A   3      22.569 -15.652 -22.507  0.00  0.00    +0.000 A 
ATOM     30  N   HIS A   4      24.084 -13.359 -15.792  0.00  0.00    +0.000 N 
ATOM     31  CA  HIS A   4      24.176 -12.662 -14.512  0.00  0.00    +0.000 C 
ATOM     32  C   HIS A   4      24.999 -11.396 -14.647  0.00  0.00    +0.000 C 
ATOM     33  O   HIS A   4      25.963 -11.346 -15.424  0.00  0.00    +0.000 OA
ATOM     34  CB  HIS A   4      24.755 -13.581 -13.443  0.00  0.00    +0.000 C 
ATOM     35  CG  HIS A   4      23.894 -14.789 -13.226  0.00  0.00    +0.000 A 
ATOM     36  ND1 HIS A   4      22.831 -14.840 -12.362  0.00  0.00    +0.000 N 
ATOM     37  CD2 HIS A   4      23.910 -15.963 -13.924  0.00  0.00    +0.000 A 
ATOM     38  CE1 HIS A   4      22.228 -16.023 -12.485  0.00  0.00    +0.000 A 
ATOM     39  NE2 HIS A   4      22.873 -16.727 -13.458  0.00  0.00    +0.000 NA
ATOM     40  N   CYS A   5      24.606 -10.387 -13.875  0.00  0.00    +0.000 N 
ATOM     41  CA  CYS A   5      25.401  -9.189 -13.691  0.00  0.00    +0.000 C 
ATOM     42  C   CYS A   5      26.319  -9.400 -12.500  0.00  0.00    +0.000 C 
ATOM     43  O   CYS A   5      25.862  -9.685 -11.390  0.00  0.00    +0.000 OA
ATOM     44  CB  CYS A   5      24.549  -7.966 -13.489  0.00  0.00    +0.000 C 
ATOM     45  SG  CYS A   5      25.536  -6.499 -13.097  0.00  0.00    +0.000 S 
ATOM     46  N   ASN A   6      27.634  -9.237 -12.748  0.00  0.00    +0.000 N 
ATOM     47  CA  ASN A   6      28.616  -9.504 -11.714  0.00  0.00    +0.000 C 
ATOM     48  C   ASN A   6      28.682  -8.356 -10.708  0.00  0.00    +0.000 C 
ATOM     49  O   ASN A   6      29.337  -8.492  -9.689  0.00  0.00    +0.000 OA
ATOM     50  CB  ASN A   6      29.973  -9.810 -12.340  0.00  0.00    +0.000 C 
ATOM     51  CG  ASN A   6      30.074 -11.191 -12.970  0.00  0.00    +0.000 C 
ATOM     52  OD1 ASN A   6      29.139 -12.002 -12.986  0.00  0.00    +0.000 OA
ATOM     53  ND2 ASN A   6      31.265 -11.504 -13.457  0.00  0.00    +0.000 N 
ATOM     54  N   GLN A   7      28.093  -7.203 -11.033  0.00  0.00    +0.000 N 
ATOM     55  CA  GLN A   7      28.093  -6.061 -10.130  0.00  0.00    +0.000 C 
ATOM     56  C   GLN A   7      27.042  -6.205  -9.025  0.00  0.00    +0.000 C 
ATOM     57  O   GLN A   7      27.335  -5.803  -7.919  0.00  0.00    +0.000 OA
ATOM     58  CB  GLN A   7      27.894  -4.746 -10.884  0.00  0.00    +0.000 C 
ATOM     59  CG  GLN A   7      28.933  -4.550 -11.979  0.00  0.00    +0.000 C 
ATOM     60  CD  GLN A   7      29.117  -3.119 -12.413  0.00  0.00    +0.000 C 
ATOM     61  OE1 GLN A   7      28.803  -2.197 -11.673  0.00  0.00    +0.000 OA
ATOM     62  NE2 GLN A   7      29.666  -2.929 -13.606  0.00  0.00    +0.000 N 
ATOM     63  N   CYS A   8      25.837  -6.732  -9.320  0.00  0.00    +0.000 N 
ATOM     64  CA  CYS A   8      24.720  -6.633  -8.395  0.00  0.00    +0.000 C 
ATOM     65  C   CYS A   8      23.902  -7.918  -8.264  0.00  0.00    +0.000 C 
ATOM     66  O   CYS A   8      23.065  -8.015  -7.378  0.00  0.00    +0.000 OA
ATOM     67  CB  CYS A   8      23.759  -5.510  -8.774  0.00  0.00    +0.000 C 
ATOM     68  SG  CYS A   8      22.761  -5.810 -10.260  0.00  0.00    +0.000 S 
ATOM     69  N   GLY A   9      24.169  -8.922  -9.095  0.00  0.00    +0.000 N 
ATOM     70  CA  GLY A   9      23.491 -10.199  -9.013  0.00  0.00    +0.000 C 
ATOM     71  C   GLY A   9      22.220 -10.282  -9.855  0.00  0.00    +0.000 C 
ATOM     72  O   GLY A   9      21.579 -11.339  -9.868  0.00  0.00    +0.000 OA
ATOM     73  N   ALA A  10      21.823  -9.198 -10.522  0.00  0.00    +0.000 N 
ATOM     74  CA  ALA A  10      20.728  -9.222 -11.495  0.00  0.00    +0.000 C 
ATOM     75  C   ALA A  10      20.916 -10.360 -12.506  0.00  0.00    +0.000 C 
ATOM     76  O   ALA A  10      22.035 -10.615 -12.967  0.00  0.00    +0.000 OA
ATOM     77  CB  ALA A  10      20.610  -7.902 -12.220  0.00  0.00    +0.000 C 
ATOM     78  H   ARG A   1      19.013 -19.736 -14.172  0.00  0.00    +0.000 HD
ATOM     79  H   ARG A   1      17.781 -18.723 -13.692  0.00  0.00    +0.000 HD
ATOM     80  H   ARG A   1      19.355 -18.377 -13.272  0.00  0.00    +0.000 HD
ATOM     81  H   ARG A   1      14.930 -15.453 -13.729  0.00  0.00    +0.000 HD
ATOM     82  H   ARG A   1      16.228 -12.458 -14.888  0.00  0.00    +0.000 HD
ATOM     83  H   ARG A   1      14.839 -11.556 -14.485  0.00  0.00    +0.000 HD
ATOM     84  H   ARG A   1      13.002 -12.609 -13.610  0.00  0.00    +0.000 HD
ATOM     85  H   ARG A   1      13.019 -14.298 -13.375  0.00  0.00    +0.000 HD
ATOM     86  H   PHE A   3      21.158 -15.475 -17.485  0.00  0.00    +0.000 HD
ATOM     87  H   HIS A   4      24.909 -13.674 -16.227  0.00  0.00    +0.000 HD
ATOM     88  H   HIS A   4      22.557 -14.120 -11.750  0.00  0.00    +0.000 HD
ATOM     89  H   CYS A   5      23.741 -10.456 -13.410  0.00  0.00    +0.000 HD
ATOM     90  H   CYS A   5      26.215  -6.706 -11.937  0.00  0.00    +0.000 HD
ATOM     91  H   ASN A   6      27.930  -8.935 -13.637  0.00  0.00    +0.000 HD
ATOM     92  H   ASN A   6      31.409 -12.381 -13.881  0.00  0.00    +0.000 HD
ATOM     93  H   ASN A   6      32.007 -10.860 -13.396  0.00  0.00    +0.000 HD
ATOM     94  H   GLN A   7      27.647  -7.123 -11.907  0.00  0.00    +0.000 HD
ATOM     95  H   GLN A   7      29.903  -3.702 -14.168  0.00  0.00    +0.000 HD
ATOM     96  H   GLN A   7      29.837  -2.015 -13.929  0.00  0.00    +0.000 HD
ATOM     97  H   CYS A   8      25.711  -7.194 -10.180  0.00  0.00    +0.000 HD
ATOM     98  H   CYS A   8      21.952  -6.884 -10.054  0.00  0.00    +0.000 HD
ATOM     99  H   GLY A   9      24.853  -8.792  -9.791  0.00  0.00    +0.000 HD
ATOM    100  H   ALA A  10      22.285  -8.345 -10.354  0.00  0.00    +0.000 HD
TER 
