REMARK  Name = /data/user_data/xianyang/t3-aimnet-affinity-balanced/L3/Q15878/pocket.pdb
REMARK                            x       y       z     vdW  Elec       q    Type
REMARK                         _______ _______ _______ _____ _____    ______ ____
ATOM      1  N   ILE A   1     141.808 181.578 169.050  0.00  0.00    +0.000 N 
ATOM      2  CA  ILE A   1     141.112 180.579 168.252  0.00  0.00    +0.000 C 
ATOM      3  C   ILE A   1     142.103 179.797 167.408  0.00  0.00    +0.000 C 
ATOM      4  O   ILE A   1     141.705 178.995 166.563  0.00  0.00    +0.000 OA
ATOM      5  CB  ILE A   1     140.017 181.207 167.379  0.00  0.00    +0.000 C 
ATOM      6  CG1 ILE A   1     140.626 182.156 166.359  0.00  0.00    +0.000 C 
ATOM      7  CG2 ILE A   1     139.016 181.928 168.252  0.00  0.00    +0.000 C 
ATOM      8  CD1 ILE A   1     139.630 182.687 165.368  0.00  0.00    +0.000 C 
ATOM      9  N   VAL A   2     143.393 180.034 167.608  0.00  0.00    +0.000 N 
ATOM     10  CA  VAL A   2     144.427 179.185 167.033  0.00  0.00    +0.000 C 
ATOM     11  C   VAL A   2     144.954 178.295 168.139  0.00  0.00    +0.000 C 
ATOM     12  O   VAL A   2     145.185 177.096 167.945  0.00  0.00    +0.000 OA
ATOM     13  CB  VAL A   2     145.568 179.998 166.419  0.00  0.00    +0.000 C 
ATOM     14  CG2 VAL A   2     146.573 179.072 165.836  0.00  0.00    +0.000 C 
ATOM     15  CG1 VAL A   2     145.036 180.920 165.369  0.00  0.00    +0.000 C 
ATOM     16  H   ILE A   1     141.132 182.096 169.612  0.00  0.00    +0.000 HD
ATOM     17  H   ILE A   1     142.302 182.223 168.433  0.00  0.00    +0.000 HD
ATOM     18  H   ILE A   1     142.478 181.116 169.665  0.00  0.00    +0.000 HD
ATOM     19  H   VAL A   2     143.658 180.805 168.160  0.00  0.00    +0.000 HD
TER 
REMARK  Name = /data/user_data/xianyang/t3-aimnet-affinity-balanced/L3/Q15878/pocket.pdb
REMARK                            x       y       z     vdW  Elec       q    Type
REMARK                         _______ _______ _______ _____ _____    ______ ____
ATOM      1  N   SER B   1     142.574 175.510 168.743  0.00  0.00    +0.000 N 
ATOM      2  CA  SER B   1     142.693 174.470 167.734  0.00  0.00    +0.000 C 
ATOM      3  C   SER B   1     143.876 173.560 168.026  0.00  0.00    +0.000 C 
ATOM      4  O   SER B   1     143.773 172.327 167.934  0.00  0.00    +0.000 OA
ATOM      5  CB  SER B   1     142.832 175.113 166.365  0.00  0.00    +0.000 C 
ATOM      6  OG  SER B   1     142.991 174.122 165.385  0.00  0.00    +0.000 OA
ATOM      7  N   ILE B   2     145.005 174.153 168.407  0.00  0.00    +0.000 N 
ATOM      8  CA  ILE B   2     146.191 173.362 168.723  0.00  0.00    +0.000 C 
ATOM      9  C   ILE B   2     145.944 172.466 169.924  0.00  0.00    +0.000 C 
ATOM     10  O   ILE B   2     146.197 171.261 169.876  0.00  0.00    +0.000 OA
ATOM     11  CB  ILE B   2     147.396 174.284 168.939  0.00  0.00    +0.000 C 
ATOM     12  CG1 ILE B   2     147.680 175.004 167.637  0.00  0.00    +0.000 C 
ATOM     13  CG2 ILE B   2     148.581 173.512 169.455  0.00  0.00    +0.000 C 
ATOM     14  CD1 ILE B   2     147.981 174.054 166.508  0.00  0.00    +0.000 C 
ATOM     15  H   SER B   1     141.775 176.105 168.525  0.00  0.00    +0.000 HD
ATOM     16  H   SER B   1     143.425 176.073 168.753  0.00  0.00    +0.000 HD
ATOM     17  H   SER B   1     142.439 175.081 169.659  0.00  0.00    +0.000 HD
ATOM     18  H   SER B   1     142.215 173.540 165.384  0.00  0.00    +0.000 HD
ATOM     19  H   ILE B   2     145.041 175.134 168.476  0.00  0.00    +0.000 HD
TER 
REMARK  Name = /data/user_data/xianyang/t3-aimnet-affinity-balanced/L3/Q15878/pocket.pdb
REMARK                            x       y       z     vdW  Elec       q    Type
REMARK                         _______ _______ _______ _____ _____    ______ ____
ATOM      1  N   ALA C   1     143.913 169.471 169.004  0.00  0.00    +0.000 N 
ATOM      2  CA  ALA C   1     144.542 168.340 168.337  0.00  0.00    +0.000 C 
ATOM      3  C   ALA C   1     145.334 167.439 169.277  0.00  0.00    +0.000 C 
ATOM      4  O   ALA C   1     145.766 166.367 168.848  0.00  0.00    +0.000 OA
ATOM      5  CB  ALA C   1     145.454 168.826 167.219  0.00  0.00    +0.000 C 
ATOM      6  H   ALA C   1     143.402 170.029 168.319  0.00  0.00    +0.000 HD
ATOM      7  H   ALA C   1     144.630 170.047 169.445  0.00  0.00    +0.000 HD
ATOM      8  H   ALA C   1     143.266 169.130 169.715  0.00  0.00    +0.000 HD
TER 
REMARK  Name = /data/user_data/xianyang/t3-aimnet-affinity-balanced/L3/Q15878/pocket.pdb
REMARK                            x       y       z     vdW  Elec       q    Type
REMARK                         _______ _______ _______ _____ _____    ______ ____
ATOM      1  N   GLU D   1     143.995 161.971 163.791  0.00  0.00    +0.000 N 
ATOM      2  CA  GLU D   1     143.290 163.188 164.169  0.00  0.00    +0.000 C 
ATOM      3  C   GLU D   1     143.302 164.219 163.054  0.00  0.00    +0.000 C 
ATOM      4  O   GLU D   1     142.342 164.971 162.887  0.00  0.00    +0.000 OA
ATOM      5  CB  GLU D   1     143.904 163.779 165.420  0.00  0.00    +0.000 C 
ATOM      6  CG  GLU D   1     143.249 165.047 165.828  0.00  0.00    +0.000 C 
ATOM      7  CD  GLU D   1     141.907 164.809 166.466  0.00  0.00    +0.000 C 
ATOM      8  OE2 GLU D   1     141.648 163.673 166.911  0.00  0.00    +0.000 OA
ATOM      9  OE1 GLU D   1     141.103 165.758 166.515  0.00  0.00    +0.000 OA
ATOM     10  N   PHE D   2     144.381 164.288 162.294  0.00  0.00    +0.000 N 
ATOM     11  CA  PHE D   2     144.441 165.224 161.182  0.00  0.00    +0.000 C 
ATOM     12  C   PHE D   2     143.547 164.781 160.039  0.00  0.00    +0.000 C 
ATOM     13  O   PHE D   2     142.963 165.616 159.350  0.00  0.00    +0.000 OA
ATOM     14  CB  PHE D   2     145.877 165.380 160.714  0.00  0.00    +0.000 C 
ATOM     15  CG  PHE D   2     146.771 166.007 161.731  0.00  0.00    +0.000 A 
ATOM     16  CD2 PHE D   2     146.250 166.789 162.733  0.00  0.00    +0.000 A 
ATOM     17  CD1 PHE D   2     148.121 165.816 161.690  0.00  0.00    +0.000 A 
ATOM     18  CE2 PHE D   2     147.060 167.370 163.664  0.00  0.00    +0.000 A 
ATOM     19  CE1 PHE D   2     148.919 166.399 162.618  0.00  0.00    +0.000 A 
ATOM     20  CZ  PHE D   2     148.385 167.178 163.606  0.00  0.00    +0.000 A 
ATOM     21  H   GLU D   1     143.573 161.582 162.948  0.00  0.00    +0.000 HD
ATOM     22  H   GLU D   1     143.930 161.291 164.549  0.00  0.00    +0.000 HD
ATOM     23  H   GLU D   1     144.975 162.188 163.612  0.00  0.00    +0.000 HD
ATOM     24  H   PHE D   2     145.149 163.702 162.482  0.00  0.00    +0.000 HD
TER 
REMARK  Name = /data/user_data/xianyang/t3-aimnet-affinity-balanced/L3/Q15878/pocket.pdb
REMARK                            x       y       z     vdW  Elec       q    Type
REMARK                         _______ _______ _______ _____ _____    ______ ____
ATOM      1  N   GLU E   1     140.085 165.695 161.189  0.00  0.00    +0.000 N 
ATOM      2  CA  GLU E   1     139.822 167.113 161.360  0.00  0.00    +0.000 C 
ATOM      3  C   GLU E   1     139.817 167.877 160.054  0.00  0.00    +0.000 C 
ATOM      4  O   GLU E   1     139.295 168.989 160.006  0.00  0.00    +0.000 OA
ATOM      5  CB  GLU E   1     140.853 167.733 162.292  0.00  0.00    +0.000 C 
ATOM      6  CG  GLU E   1     140.400 169.016 162.917  0.00  0.00    +0.000 C 
ATOM      7  CD  GLU E   1     141.255 169.423 164.101  0.00  0.00    +0.000 C 
ATOM      8  OE2 GLU E   1     141.740 168.526 164.819  0.00  0.00    +0.000 OA
ATOM      9  OE1 GLU E   1     141.440 170.641 164.316  0.00  0.00    +0.000 OA
ATOM     10  N   ARG E   2     140.396 167.324 159.000  0.00  0.00    +0.000 N 
ATOM     11  CA  ARG E   2     140.343 168.003 157.721  0.00  0.00    +0.000 C 
ATOM     12  C   ARG E   2     138.957 167.943 157.111  0.00  0.00    +0.000 C 
ATOM     13  O   ARG E   2     138.668 168.708 156.194  0.00  0.00    +0.000 OA
ATOM     14  CB  ARG E   2     141.359 167.387 156.771  0.00  0.00    +0.000 C 
ATOM     15  CG  ARG E   2     142.747 167.933 156.945  0.00  0.00    +0.000 C 
ATOM     16  CD  ARG E   2     143.609 167.606 155.770  0.00  0.00    +0.000 C 
ATOM     17  NE  ARG E   2     143.334 168.509 154.667  0.00  0.00    +0.000 N 
ATOM     18  CZ  ARG E   2     142.797 168.135 153.517  0.00  0.00    +0.000 C 
ATOM     19  NH2 ARG E   2     142.480 166.867 153.314  0.00  0.00    +0.000 N 
ATOM     20  NH1 ARG E   2     142.579 169.028 152.572  0.00  0.00    +0.000 N 
ATOM     21  H   GLU E   1     139.387 165.293 160.563  0.00  0.00    +0.000 HD
ATOM     22  H   GLU E   1     140.038 165.229 162.095  0.00  0.00    +0.000 HD
ATOM     23  H   GLU E   1     141.015 165.567 160.789  0.00  0.00    +0.000 HD
ATOM     24  H   ARG E   2     140.859 166.459 159.084  0.00  0.00    +0.000 HD
ATOM     25  H   ARG E   2     143.561 169.460 154.782  0.00  0.00    +0.000 HD
ATOM     26  H   ARG E   2     142.081 166.590 152.458  0.00  0.00    +0.000 HD
ATOM     27  H   ARG E   2     142.644 166.200 154.019  0.00  0.00    +0.000 HD
ATOM     28  H   ARG E   2     142.180 168.751 151.716  0.00  0.00    +0.000 HD
ATOM     29  H   ARG E   2     142.816 169.972 152.722  0.00  0.00    +0.000 HD
TER 
REMARK  Name = /data/user_data/xianyang/t3-aimnet-affinity-balanced/L3/Q15878/pocket.pdb
REMARK                            x       y       z     vdW  Elec       q    Type
REMARK                         _______ _______ _______ _____ _____    ______ ____
ATOM      1  N   ASN F   1     136.079 173.136 157.846  0.00  0.00    +0.000 N 
ATOM      2  CA  ASN F   1     137.349 172.983 157.151  0.00  0.00    +0.000 C 
ATOM      3  C   ASN F   1     137.186 172.613 155.687  0.00  0.00    +0.000 C 
ATOM      4  O   ASN F   1     137.922 173.127 154.841  0.00  0.00    +0.000 OA
ATOM      5  CB  ASN F   1     138.213 171.934 157.842  0.00  0.00    +0.000 C 
ATOM      6  CG  ASN F   1     138.774 172.416 159.148  0.00  0.00    +0.000 C 
ATOM      7  OD1 ASN F   1     138.203 172.188 160.206  0.00  0.00    +0.000 OA
ATOM      8  ND2 ASN F   1     139.906 173.086 159.084  0.00  0.00    +0.000 N 
ATOM      9  H   ASN F   1     135.514 173.840 157.371  0.00  0.00    +0.000 HD
ATOM     10  H   ASN F   1     136.251 173.430 158.808  0.00  0.00    +0.000 HD
ATOM     11  H   ASN F   1     135.582 172.245 157.846  0.00  0.00    +0.000 HD
ATOM     12  H   ASN F   1     140.333 173.248 158.212  0.00  0.00    +0.000 HD
ATOM     13  H   ASN F   1     140.325 173.425 159.908  0.00  0.00    +0.000 HD
TER 
REMARK  Name = /data/user_data/xianyang/t3-aimnet-affinity-balanced/L3/Q15878/pocket.pdb
REMARK                            x       y       z     vdW  Elec       q    Type
REMARK                         _______ _______ _______ _____ _____    ______ ____
ATOM      1  N   SER G   1     149.128 176.577 148.742  0.00  0.00    +0.000 N 
ATOM      2  CA  SER G   1     148.470 176.216 149.984  0.00  0.00    +0.000 C 
ATOM      3  C   SER G   1     149.211 176.745 151.190  0.00  0.00    +0.000 C 
ATOM      4  O   SER G   1     148.615 176.899 152.255  0.00  0.00    +0.000 OA
ATOM      5  CB  SER G   1     148.345 174.717 150.090  0.00  0.00    +0.000 C 
ATOM      6  OG  SER G   1     147.442 174.410 151.116  0.00  0.00    +0.000 OA
ATOM      7  N   LEU G   2     150.515 176.971 151.067  0.00  0.00    +0.000 N 
ATOM      8  CA  LEU G   2     151.252 177.619 152.142  0.00  0.00    +0.000 C 
ATOM      9  C   LEU G   2     150.972 179.108 152.174  0.00  0.00    +0.000 C 
ATOM     10  O   LEU G   2     150.732 179.673 153.240  0.00  0.00    +0.000 OA
ATOM     11  CB  LEU G   2     152.741 177.364 151.988  0.00  0.00    +0.000 C 
ATOM     12  CG  LEU G   2     153.233 176.038 152.545  0.00  0.00    +0.000 C 
ATOM     13  CD1 LEU G   2     154.710 175.948 152.381  0.00  0.00    +0.000 C 
ATOM     14  CD2 LEU G   2     152.877 175.913 153.985  0.00  0.00    +0.000 C 
ATOM     15  H   SER G   1     148.598 176.202 147.955  0.00  0.00    +0.000 HD
ATOM     16  H   SER G   1     150.071 176.189 148.732  0.00  0.00    +0.000 HD
ATOM     17  H   SER G   1     149.177 177.593 148.666  0.00  0.00    +0.000 HD
ATOM     18  H   SER G   1     147.767 174.776 151.953  0.00  0.00    +0.000 HD
ATOM     19  H   LEU G   2     150.984 176.699 150.245  0.00  0.00    +0.000 HD
TER 
REMARK  Name = /data/user_data/xianyang/t3-aimnet-affinity-balanced/L3/Q15878/pocket.pdb
REMARK                            x       y       z     vdW  Elec       q    Type
REMARK                         _______ _______ _______ _____ _____    ______ ____
ATOM      1  N   SER H   1     147.454 179.854 153.674  0.00  0.00    +0.000 N 
ATOM      2  CA  SER H   1     147.445 179.664 155.121  0.00  0.00    +0.000 C 
ATOM      3  C   SER H   1     148.758 180.181 155.694  0.00  0.00    +0.000 C 
ATOM      4  O   SER H   1     149.680 179.438 156.004  0.00  0.00    +0.000 OA
ATOM      5  CB  SER H   1     147.223 178.201 155.468  0.00  0.00    +0.000 C 
ATOM      6  OG  SER H   1     148.399 177.456 155.253  0.00  0.00    +0.000 OA
ATOM      7  N   MET H   2     148.836 181.490 155.787  0.00  0.00    +0.000 N 
ATOM      8  CA  MET H   2     150.002 182.167 156.311  0.00  0.00    +0.000 C 
ATOM      9  C   MET H   2     149.675 183.028 157.503  0.00  0.00    +0.000 C 
ATOM     10  O   MET H   2     150.517 183.197 158.373  0.00  0.00    +0.000 OA
ATOM     11  CB  MET H   2     150.640 183.040 155.230  0.00  0.00    +0.000 C 
ATOM     12  CG  MET H   2     152.021 183.523 155.540  0.00  0.00    +0.000 C 
ATOM     13  SD  MET H   2     153.278 182.398 154.928  0.00  0.00    +0.000 S 
ATOM     14  CE  MET H   2     154.482 182.490 156.245  0.00  0.00    +0.000 C 
ATOM     15  N   LYS H   3     148.469 183.575 157.570  0.00  0.00    +0.000 N 
ATOM     16  CA  LYS H   3     148.031 184.221 158.790  0.00  0.00    +0.000 C 
ATOM     17  C   LYS H   3     147.802 183.216 159.897  0.00  0.00    +0.000 C 
ATOM     18  O   LYS H   3     147.675 183.611 161.054  0.00  0.00    +0.000 OA
ATOM     19  CB  LYS H   3     146.748 185.003 158.550  0.00  0.00    +0.000 C 
ATOM     20  CG  LYS H   3     146.835 186.009 157.431  0.00  0.00    +0.000 C 
ATOM     21  CD  LYS H   3     145.545 186.791 157.306  0.00  0.00    +0.000 C 
ATOM     22  CE  LYS H   3     145.528 187.674 156.080  0.00  0.00    +0.000 C 
ATOM     23  NZ  LYS H   3     145.334 186.871 154.850  0.00  0.00    +0.000 N 
ATOM     24  N   SER H   4     147.729 181.933 159.572  0.00  0.00    +0.000 N 
ATOM     25  CA  SER H   4     147.558 180.907 160.581  0.00  0.00    +0.000 C 
ATOM     26  C   SER H   4     148.812 180.091 160.826  0.00  0.00    +0.000 C 
ATOM     27  O   SER H   4     148.831 179.299 161.760  0.00  0.00    +0.000 OA
ATOM     28  CB  SER H   4     146.424 179.968 160.203  0.00  0.00    +0.000 C 
ATOM     29  OG  SER H   4     146.346 178.930 161.152  0.00  0.00    +0.000 OA
ATOM     30  N   ILE H   5     149.839 180.239 160.004  0.00  0.00    +0.000 N 
ATOM     31  CA  ILE H   5     151.155 179.726 160.343  0.00  0.00    +0.000 C 
ATOM     32  C   ILE H   5     151.933 180.743 161.160  0.00  0.00    +0.000 C 
ATOM     33  O   ILE H   5     152.647 180.382 162.092  0.00  0.00    +0.000 OA
ATOM     34  CB  ILE H   5     151.919 179.346 159.066  0.00  0.00    +0.000 C 
ATOM     35  CG1 ILE H   5     151.358 178.091 158.429  0.00  0.00    +0.000 C 
ATOM     36  CG2 ILE H   5     153.366 179.116 159.361  0.00  0.00    +0.000 C 
ATOM     37  CD1 ILE H   5     152.081 177.733 157.166  0.00  0.00    +0.000 C 
ATOM     38  H   SER H   1     146.578 179.510 153.281  0.00  0.00    +0.000 HD
ATOM     39  H   SER H   1     148.235 179.338 153.268  0.00  0.00    +0.000 HD
ATOM     40  H   SER H   1     147.556 180.847 153.462  0.00  0.00    +0.000 HD
ATOM     41  H   SER H   1     148.653 177.515 154.319  0.00  0.00    +0.000 HD
ATOM     42  H   MET H   2     148.070 182.031 155.488  0.00  0.00    +0.000 HD
ATOM     43  H   LYS H   3     147.870 183.542 156.789  0.00  0.00    +0.000 HD
ATOM     44  H   LYS H   3     144.441 186.382 154.901  0.00  0.00    +0.000 HD
ATOM     45  H   LYS H   3     146.090 186.191 154.765  0.00  0.00    +0.000 HD
ATOM     46  H   LYS H   3     145.338 187.487 154.037  0.00  0.00    +0.000 HD
ATOM     47  H   SER H   4     147.792 181.672 158.625  0.00  0.00    +0.000 HD
ATOM     48  H   SER H   4     147.184 178.442 161.167  0.00  0.00    +0.000 HD
ATOM     49  H   ILE H   5     149.708 180.705 159.147  0.00  0.00    +0.000 HD
TER 
REMARK  Name = /data/user_data/xianyang/t3-aimnet-affinity-balanced/L3/Q15878/pocket.pdb
REMARK                            x       y       z     vdW  Elec       q    Type
REMARK                         _______ _______ _______ _____ _____    ______ ____
ATOM      1  N   LEU I   1     150.808 181.094 164.665  0.00  0.00    +0.000 N 
ATOM      2  CA  LEU I   1     151.064 179.850 165.360  0.00  0.00    +0.000 C 
ATOM      3  C   LEU I   1     152.518 179.698 165.750  0.00  0.00    +0.000 C 
ATOM      4  O   LEU I   1     152.809 179.285 166.868  0.00  0.00    +0.000 OA
ATOM      5  CB  LEU I   1     150.625 178.690 164.475  0.00  0.00    +0.000 C 
ATOM      6  CG  LEU I   1     150.672 177.279 164.965  0.00  0.00    +0.000 C 
ATOM      7  CD2 LEU I   1     149.763 177.297 166.113  0.00  0.00    +0.000 C 
ATOM      8  CD1 LEU I   1     150.091 176.416 163.894  0.00  0.00    +0.000 C 
ATOM      9  H   LEU I   1     149.819 181.151 164.423  0.00  0.00    +0.000 HD
ATOM     10  H   LEU I   1     151.368 181.129 163.814  0.00  0.00    +0.000 HD
ATOM     11  H   LEU I   1     151.057 181.878 165.268  0.00  0.00    +0.000 HD
TER 
REMARK  Name = /data/user_data/xianyang/t3-aimnet-affinity-balanced/L3/Q15878/pocket.pdb
REMARK                            x       y       z     vdW  Elec       q    Type
REMARK                         _______ _______ _______ _____ _____    ______ ____
ATOM      1  N   VAL J   1     152.488 170.808 166.232  0.00  0.00    +0.000 N 
ATOM      2  CA  VAL J   1     152.292 172.036 165.468  0.00  0.00    +0.000 C 
ATOM      3  C   VAL J   1     152.883 171.903 164.078  0.00  0.00    +0.000 C 
ATOM      4  O   VAL J   1     152.236 172.210 163.073  0.00  0.00    +0.000 OA
ATOM      5  CB  VAL J   1     152.906 173.227 166.212  0.00  0.00    +0.000 C 
ATOM      6  CG1 VAL J   1     153.031 174.387 165.291  0.00  0.00    +0.000 C 
ATOM      7  CG2 VAL J   1     152.070 173.585 167.392  0.00  0.00    +0.000 C 
ATOM      8  H   VAL J   1     152.075 170.024 165.727  0.00  0.00    +0.000 HD
ATOM      9  H   VAL J   1     152.039 170.899 167.143  0.00  0.00    +0.000 HD
ATOM     10  H   VAL J   1     153.486 170.643 166.360  0.00  0.00    +0.000 HD
TER 
REMARK  Name = /data/user_data/xianyang/t3-aimnet-affinity-balanced/L3/Q15878/pocket.pdb
REMARK                            x       y       z     vdW  Elec       q    Type
REMARK                         _______ _______ _______ _____ _____    ______ ____
ATOM      1  N   LEU K   1     153.623 169.280 162.415  0.00  0.00    +0.000 N 
ATOM      2  CA  LEU K   1     153.023 168.239 161.605  0.00  0.00    +0.000 C 
ATOM      3  C   LEU K   1     151.628 168.607 161.182  0.00  0.00    +0.000 C 
ATOM      4  O   LEU K   1     151.218 168.234 160.093  0.00  0.00    +0.000 OA
ATOM      5  CB  LEU K   1     152.988 166.916 162.364  0.00  0.00    +0.000 C 
ATOM      6  CG  LEU K   1     152.767 165.645 161.557  0.00  0.00    +0.000 C 
ATOM      7  CD1 LEU K   1     153.938 165.360 160.695  0.00  0.00    +0.000 C 
ATOM      8  CD2 LEU K   1     152.520 164.480 162.467  0.00  0.00    +0.000 C 
ATOM      9  N   ALA K   2     150.887 169.349 161.994  0.00  0.00    +0.000 N 
ATOM     10  CA  ALA K   2     149.623 169.886 161.526  0.00  0.00    +0.000 C 
ATOM     11  C   ALA K   2     149.843 170.798 160.343  0.00  0.00    +0.000 C 
ATOM     12  O   ALA K   2     149.178 170.668 159.320  0.00  0.00    +0.000 OA
ATOM     13  CB  ALA K   2     148.919 170.639 162.644  0.00  0.00    +0.000 C 
ATOM     14  N   ILE K   3     150.801 171.714 160.456  0.00  0.00    +0.000 N 
ATOM     15  CA  ILE K   3     151.088 172.635 159.362  0.00  0.00    +0.000 C 
ATOM     16  C   ILE K   3     151.406 171.866 158.092  0.00  0.00    +0.000 C 
ATOM     17  O   ILE K   3     150.838 172.127 157.028  0.00  0.00    +0.000 OA
ATOM     18  CB  ILE K   3     152.247 173.562 159.750  0.00  0.00    +0.000 C 
ATOM     19  CG1 ILE K   3     151.763 174.675 160.653  0.00  0.00    +0.000 C 
ATOM     20  CG2 ILE K   3     152.923 174.109 158.544  0.00  0.00    +0.000 C 
ATOM     21  CD1 ILE K   3     152.880 175.435 161.275  0.00  0.00    +0.000 C 
ATOM     22  N   ALA K   4     152.286 170.881 158.193  0.00  0.00    +0.000 N 
ATOM     23  CA  ALA K   4     152.789 170.183 157.025  0.00  0.00    +0.000 C 
ATOM     24  C   ALA K   4     151.839 169.137 156.483  0.00  0.00    +0.000 C 
ATOM     25  O   ALA K   4     151.927 168.813 155.308  0.00  0.00    +0.000 OA
ATOM     26  CB  ALA K   4     154.117 169.519 157.346  0.00  0.00    +0.000 C 
ATOM     27  N   VAL K   5     150.959 168.573 157.295  0.00  0.00    +0.000 N 
ATOM     28  CA  VAL K   5     149.962 167.649 156.782  0.00  0.00    +0.000 C 
ATOM     29  C   VAL K   5     148.786 168.395 156.202  0.00  0.00    +0.000 C 
ATOM     30  O   VAL K   5     148.284 168.035 155.145  0.00  0.00    +0.000 OA
ATOM     31  CB  VAL K   5     149.516 166.666 157.873  0.00  0.00    +0.000 C 
ATOM     32  CG1 VAL K   5     148.362 165.890 157.402  0.00  0.00    +0.000 C 
ATOM     33  CG2 VAL K   5     150.596 165.698 158.142  0.00  0.00    +0.000 C 
ATOM     34  N   ASP K   6     148.331 169.449 156.862  0.00  0.00    +0.000 N 
ATOM     35  CA  ASP K   6     147.276 170.266 156.298  0.00  0.00    +0.000 C 
ATOM     36  C   ASP K   6     147.701 170.830 154.958  0.00  0.00    +0.000 C 
ATOM     37  O   ASP K   6     147.071 170.560 153.937  0.00  0.00    +0.000 OA
ATOM     38  CB  ASP K   6     146.938 171.380 157.276  0.00  0.00    +0.000 C 
ATOM     39  CG  ASP K   6     145.996 172.396 156.711  0.00  0.00    +0.000 C 
ATOM     40  OD1 ASP K   6     145.505 172.236 155.586  0.00  0.00    +0.000 OA
ATOM     41  OD2 ASP K   6     145.747 173.396 157.400  0.00  0.00    +0.000 OA
ATOM     42  N   ASN K   7     148.754 171.642 154.942  0.00  0.00    +0.000 N 
ATOM     43  CA  ASN K   7     149.143 172.342 153.730  0.00  0.00    +0.000 C 
ATOM     44  C   ASN K   7     149.662 171.435 152.654  0.00  0.00    +0.000 C 
ATOM     45  O   ASN K   7     150.097 171.928 151.625  0.00  0.00    +0.000 OA
ATOM     46  CB  ASN K   7     150.201 173.371 154.056  0.00  0.00    +0.000 C 
ATOM     47  CG  ASN K   7     149.724 174.373 155.030  0.00  0.00    +0.000 C 
ATOM     48  OD1 ASN K   7     148.775 175.095 154.772  0.00  0.00    +0.000 OA
ATOM     49  ND2 ASN K   7     150.334 174.396 156.188  0.00  0.00    +0.000 N 
ATOM     50  H   LEU K   1     153.636 170.154 161.890  0.00  0.00    +0.000 HD
ATOM     51  H   LEU K   1     154.577 169.014 162.658  0.00  0.00    +0.000 HD
ATOM     52  H   LEU K   1     153.077 169.404 163.268  0.00  0.00    +0.000 HD
ATOM     53  H   ALA K   2     151.194 169.535 162.911  0.00  0.00    +0.000 HD
ATOM     54  H   ILE K   3     151.323 171.771 161.289  0.00  0.00    +0.000 HD
ATOM     55  H   ALA K   4     152.607 170.615 159.085  0.00  0.00    +0.000 HD
ATOM     56  H   VAL K   5     150.980 168.782 158.257  0.00  0.00    +0.000 HD
ATOM     57  H   ASP K   6     148.712 169.679 157.740  0.00  0.00    +0.000 HD
ATOM     58  H   ASN K   7     149.279 171.771 155.765  0.00  0.00    +0.000 HD
ATOM     59  H   ASN K   7     151.096 173.796 156.355  0.00  0.00    +0.000 HD
ATOM     60  H   ASN K   7     150.030 175.013 156.892  0.00  0.00    +0.000 HD
TER 
