REMARK  Name = /home/xianyang/aimnet2_score_pipelines/work/L1234-fixed-receptor-eint-20260921/L1/P00338/prepared.pdb
REMARK                            x       y       z     vdW  Elec       q    Type
REMARK                         _______ _______ _______ _____ _____    ______ ____
ATOM      1  CH3 ACE A   1      -2.997 -20.292 -49.164  0.00  0.00    +0.000 C 
ATOM      2  C   ACE A   1      -3.281 -18.825 -49.457  0.00  0.00    +0.000 C 
ATOM      3  O   ACE A   1      -4.212 -18.206 -48.925  0.00  0.00    +0.000 OA
ATOM      4  N   TRP A   2      -2.449 -18.255 -50.335  0.00  0.00    +0.000 N 
ATOM      5  H   TRP A   2      -1.637 -18.761 -50.654  0.00  0.00    +0.000 HD
ATOM      6  CA  TRP A   2      -2.621 -16.869 -50.742  0.00  0.00    +0.000 C 
ATOM      7  C   TRP A   2      -4.020 -16.591 -51.276  0.00  0.00    +0.000 C 
ATOM      8  O   TRP A   2      -4.552 -15.494 -51.089  0.00  0.00    +0.000 OA
ATOM      9  CB  TRP A   2      -1.600 -16.510 -51.824  0.00  0.00    +0.000 C 
ATOM     10  CG  TRP A   2      -0.190 -16.799 -51.455  0.00  0.00    +0.000 A 
ATOM     11  CD1 TRP A   2       0.601 -17.786 -51.965  0.00  0.00    +0.000 A 
ATOM     12  CD2 TRP A   2       0.583 -16.124 -50.477  0.00  0.00    +0.000 A 
ATOM     13  NE1 TRP A   2       1.842 -17.752 -51.359  0.00  0.00    +0.000 N 
ATOM     14  HE1 TRP A   2       2.613 -18.369 -51.572  0.00  0.00    +0.000 HD
ATOM     15  CE2 TRP A   2       1.850 -16.744 -50.437  0.00  0.00    +0.000 A 
ATOM     16  CE3 TRP A   2       0.335 -15.042 -49.627  0.00  0.00    +0.000 A 
ATOM     17  CZ2 TRP A   2       2.857 -16.311 -49.592  0.00  0.00    +0.000 A 
ATOM     18  CZ3 TRP A   2       1.350 -14.626 -48.781  0.00  0.00    +0.000 A 
ATOM     19  CH2 TRP A   2       2.574 -15.252 -48.777  0.00  0.00    +0.000 A 
ATOM     20  N   SER A   3      -4.603 -17.550 -52.000  0.00  0.00    +0.000 N 
ATOM     21  H   SER A   3      -4.165 -18.455 -52.084  0.00  0.00    +0.000 HD
ATOM     22  CA  SER A   3      -5.871 -17.317 -52.675  0.00  0.00    +0.000 C 
ATOM     23  C   SER A   3      -7.039 -17.171 -51.713  0.00  0.00    +0.000 C 
ATOM     24  O   SER A   3      -8.128 -16.828 -52.157  0.00  0.00    +0.000 OA
ATOM     25  CB  SER A   3      -6.182 -18.461 -53.652  0.00  0.00    +0.000 C 
ATOM     26  OG  SER A   3      -6.236 -19.704 -52.968  0.00  0.00    +0.000 OA
ATOM     27  HG  SER A   3      -7.144 -19.861 -52.682  0.00  0.00    +0.000 HD
ATOM     28  N   GLY A   4      -6.838 -17.431 -50.435  0.00  0.00    +0.000 N 
ATOM     29  H   GLY A   4      -5.928 -17.747 -50.120  0.00  0.00    +0.000 HD
ATOM     30  CA  GLY A   4      -7.910 -17.289 -49.455  0.00  0.00    +0.000 C 
ATOM     31  C   GLY A   4      -7.691 -16.165 -48.462  0.00  0.00    +0.000 C 
ATOM     32  O   GLY A   4      -8.578 -15.860 -47.647  0.00  0.00    +0.000 OA
ATOM     33  N   MET A   5      -6.521 -15.528 -48.526  0.00  0.00    +0.000 N 
ATOM     34  H   MET A   5      -5.862 -15.775 -49.253  0.00  0.00    +0.000 HD
ATOM     35  CA  MET A   5      -6.169 -14.476 -47.583  0.00  0.00    +0.000 C 
ATOM     36  C   MET A   5      -7.061 -13.257 -47.772  0.00  0.00    +0.000 C 
ATOM     37  O   MET A   5      -7.284 -12.793 -48.902  0.00  0.00    +0.000 OA
ATOM     38  CB  MET A   5      -4.707 -14.083 -47.779  0.00  0.00    +0.000 C 
ATOM     39  CG  MET A   5      -3.748 -15.092 -47.239  0.00  0.00    +0.000 C 
ATOM     40  SD  MET A   5      -2.046 -14.616 -47.616  0.00  0.00    +0.000 S 
ATOM     41  CE  MET A   5      -2.032 -12.932 -46.956  0.00  0.00    +0.000 C 
ATOM     42  N   ASN A   6      -7.590 -12.735 -46.666  0.00  0.00    +0.000 N 
ATOM     43  H   ASN A   6      -7.415 -13.124 -45.750  0.00  0.00    +0.000 HD
ATOM     44  CA  ASN A   6      -8.546 -11.649 -46.803  0.00  0.00    +0.000 C 
ATOM     45  C   ASN A   6      -8.663 -10.868 -45.503  0.00  0.00    +0.000 C 
ATOM     46  O   ASN A   6      -8.345 -11.358 -44.412  0.00  0.00    +0.000 OA
ATOM     47  CB  ASN A   6      -9.929 -12.169 -47.228  0.00  0.00    +0.000 C 
ATOM     48  CG  ASN A   6     -10.653 -12.915 -46.103  0.00  0.00    +0.000 C 
ATOM     49  OD1 ASN A   6     -11.400 -12.318 -45.340  0.00  0.00    +0.000 OA
ATOM     50  ND2 ASN A   6     -10.424 -14.229 -46.007  0.00  0.00    +0.000 N 
ATOM     51 HD21 ASN A   6      -9.797 -14.704 -46.652  0.00  0.00    +0.000 HD
ATOM     52 HD22 ASN A   6     -10.898 -14.725 -45.276  0.00  0.00    +0.000 HD
ATOM     53  N   VAL A   7      -9.097  -9.625 -45.655  0.00  0.00    +0.000 N 
ATOM     54  H   VAL A   7      -9.310  -9.313 -46.598  0.00  0.00    +0.000 HD
ATOM     55  CA  VAL A   7      -9.557  -8.779 -44.563  0.00  0.00    +0.000 C 
ATOM     56  C   VAL A   7     -10.985  -8.378 -44.898  0.00  0.00    +0.000 C 
ATOM     57  O   VAL A   7     -11.245  -7.919 -46.023  0.00  0.00    +0.000 OA
ATOM     58  CB  VAL A   7      -8.681  -7.532 -44.391  0.00  0.00    +0.000 C 
ATOM     59  CG1 VAL A   7      -9.325  -6.598 -43.361  0.00  0.00    +0.000 C 
ATOM     60  CG2 VAL A   7      -7.268  -7.920 -43.992  0.00  0.00    +0.000 C 
ATOM     61  N   ALA A   8     -11.909  -8.600 -43.944  0.00  0.00    +0.000 N 
ATOM     62  H   ALA A   8     -11.613  -9.004 -43.070  0.00  0.00    +0.000 HD
ATOM     63  CA  ALA A   8     -13.317  -8.200 -44.089  0.00  0.00    +0.000 C 
ATOM     64  C   ALA A   8     -13.927  -8.754 -45.366  0.00  0.00    +0.000 C 
ATOM     65  O   ALA A   8     -14.763  -8.104 -46.012  0.00  0.00    +0.000 OA
ATOM     66  CB  ALA A   8     -13.463  -6.673 -44.035  0.00  0.00    +0.000 C 
ATOM     67  N   GLY A   9     -13.502  -9.952 -45.757  0.00  0.00    +0.000 N 
ATOM     68  H   GLY A   9     -12.807 -10.443 -45.209  0.00  0.00    +0.000 HD
ATOM     69  CA  GLY A   9     -14.003 -10.590 -46.950  0.00  0.00    +0.000 C 
ATOM     70  C   GLY A   9     -13.470 -10.033 -48.251  0.00  0.00    +0.000 C 
ATOM     71  O   GLY A   9     -14.042 -10.316 -49.307  0.00  0.00    +0.000 OA
ATOM     72  N   VAL A  10     -12.412  -9.236 -48.212  0.00  0.00    +0.000 N 
ATOM     73  H   VAL A  10     -12.053  -8.937 -47.313  0.00  0.00    +0.000 HD
ATOM     74  CA  VAL A  10     -11.769  -8.725 -49.413  0.00  0.00    +0.000 C 
ATOM     75  C   VAL A  10     -10.565  -9.608 -49.711  0.00  0.00    +0.000 C 
ATOM     76  O   VAL A  10      -9.633  -9.690 -48.900  0.00  0.00    +0.000 OA
ATOM     77  CB  VAL A  10     -11.338  -7.258 -49.246  0.00  0.00    +0.000 C 
ATOM     78  CG1 VAL A  10     -10.684  -6.759 -50.558  0.00  0.00    +0.000 C 
ATOM     79  CG2 VAL A  10     -12.522  -6.403 -48.857  0.00  0.00    +0.000 C 
ATOM     80  N   SER A  11     -10.584 -10.268 -50.864  0.00  0.00    +0.000 N 
ATOM     81  H   SER A  11     -11.387 -10.169 -51.466  0.00  0.00    +0.000 HD
ATOM     82  CA  SER A  11      -9.475 -11.135 -51.268  0.00  0.00    +0.000 C 
ATOM     83  C   SER A  11      -8.227 -10.305 -51.560  0.00  0.00    +0.000 C 
ATOM     84  O   SER A  11      -8.228  -9.456 -52.464  0.00  0.00    +0.000 OA
ATOM     85  CB  SER A  11      -9.862 -11.936 -52.511  0.00  0.00    +0.000 C 
ATOM     86  OG  SER A  11      -8.752 -12.654 -53.045  0.00  0.00    +0.000 OA
ATOM     87  HG  SER A  11      -8.786 -13.544 -52.670  0.00  0.00    +0.000 HD
ATOM     88  N   LEU A  12      -7.148 -10.580 -50.829  0.00  0.00    +0.000 N 
ATOM     89  H   LEU A  12      -7.205 -11.265 -50.080  0.00  0.00    +0.000 HD
ATOM     90  CA  LEU A  12      -5.907  -9.872 -51.082  0.00  0.00    +0.000 C 
ATOM     91  C   LEU A  12      -5.322 -10.272 -52.434  0.00  0.00    +0.000 C 
ATOM     92  O   LEU A  12      -4.710  -9.438 -53.109  0.00  0.00    +0.000 OA
ATOM     93  CB  LEU A  12      -4.908 -10.117 -49.959  0.00  0.00    +0.000 C 
ATOM     94  CG  LEU A  12      -5.416  -9.800 -48.543  0.00  0.00    +0.000 C 
ATOM     95  CD1 LEU A  12      -4.267  -9.818 -47.529  0.00  0.00    +0.000 C 
ATOM     96  CD2 LEU A  12      -6.144  -8.461 -48.500  0.00  0.00    +0.000 C 
ATOM     97  N   LYS A  13      -5.517 -11.524 -52.857  0.00  0.00    +0.000 N 
ATOM     98  H   LYS A  13      -5.984 -12.185 -52.252  0.00  0.00    +0.000 HD
ATOM     99  CA  LYS A  13      -4.996 -11.929 -54.162  0.00  0.00    +0.000 C 
ATOM    100  C   LYS A  13      -5.771 -11.277 -55.305  0.00  0.00    +0.000 C 
ATOM    101  O   LYS A  13      -5.201 -10.975 -56.363  0.00  0.00    +0.000 OA
ATOM    102  CB  LYS A  13      -5.026 -13.447 -54.311  0.00  0.00    +0.000 C 
ATOM    103  CG  LYS A  13      -4.073 -13.935 -55.423  0.00  0.00    +0.000 C 
ATOM    104  CD  LYS A  13      -4.097 -15.446 -55.607  0.00  0.00    +0.000 C 
ATOM    105  CE  LYS A  13      -3.244 -15.850 -56.824  0.00  0.00    +0.000 C 
ATOM    106  NZ  LYS A  13      -1.831 -15.360 -56.704  0.00  0.00    +0.000 N 
ATOM    107  HZ1 LYS A  13      -1.778 -14.365 -56.935  0.00  0.00    +0.000 HD
ATOM    108  HZ2 LYS A  13      -1.421 -15.471 -55.784  0.00  0.00    +0.000 HD
ATOM    109  HZ3 LYS A  13      -1.217 -15.787 -57.384  0.00  0.00    +0.000 HD
ATOM    110  N   THR A  14      -7.066 -11.036 -55.118  0.00  0.00    +0.000 N 
ATOM    111  H   THR A  14      -7.506 -11.292 -54.244  0.00  0.00    +0.000 HD
ATOM    112  CA  THR A  14      -7.818 -10.341 -56.153  0.00  0.00    +0.000 C 
ATOM    113  C   THR A  14      -7.367  -8.895 -56.272  0.00  0.00    +0.000 C 
ATOM    114  O   THR A  14      -7.268  -8.360 -57.393  0.00  0.00    +0.000 OA
ATOM    115  CB  THR A  14      -9.310 -10.443 -55.869  0.00  0.00    +0.000 C 
ATOM    116  OG1 THR A  14      -9.699 -11.802 -56.101  0.00  0.00    +0.000 OA
ATOM    117  HG1 THR A  14      -9.285 -12.341 -55.428  0.00  0.00    +0.000 HD
ATOM    118  CG2 THR A  14     -10.091  -9.520 -56.775  0.00  0.00    +0.000 C 
ATOM    119  N   LEU A  15      -7.069  -8.261 -55.131  0.00  0.00    +0.000 N 
ATOM    120  H   LEU A  15      -7.219  -8.716 -54.239  0.00  0.00    +0.000 HD
ATOM    121  CA  LEU A  15      -6.496  -6.927 -55.162  0.00  0.00    +0.000 C 
ATOM    122  C   LEU A  15      -5.095  -6.935 -55.765  0.00  0.00    +0.000 C 
ATOM    123  O   LEU A  15      -4.663  -5.925 -56.327  0.00  0.00    +0.000 OA
ATOM    124  CB  LEU A  15      -6.431  -6.332 -53.751  0.00  0.00    +0.000 C 
ATOM    125  CG  LEU A  15      -7.741  -5.950 -53.060  0.00  0.00    +0.000 C 
ATOM    126  CD1 LEU A  15      -7.423  -5.364 -51.686  0.00  0.00    +0.000 C 
ATOM    127  CD2 LEU A  15      -8.531  -4.968 -53.914  0.00  0.00    +0.000 C 
ATOM    128  N   HIS A  16      -4.361  -8.040 -55.634  0.00  0.00    +0.000 N 
ATOM    129  H   HIS A  16      -4.734  -8.802 -55.085  0.00  0.00    +0.000 HD
ATOM    130  CA  HIS A  16      -2.948  -8.096 -56.020  0.00  0.00    +0.000 C 
ATOM    131  C   HIS A  16      -2.647  -9.471 -56.596  0.00  0.00    +0.000 C 
ATOM    132  O   HIS A  16      -2.154 -10.361 -55.893  0.00  0.00    +0.000 OA
ATOM    133  CB  HIS A  16      -2.062  -7.799 -54.810  0.00  0.00    +0.000 C 
ATOM    134  CG  HIS A  16      -0.600  -7.751 -55.120  0.00  0.00    +0.000 A 
ATOM    135  ND1 HIS A  16      -0.108  -7.219 -56.293  0.00  0.00    +0.000 N 
ATOM    136  HD1 HIS A  16      -0.651  -6.767 -57.011  0.00  0.00    +0.000 HD
ATOM    137  CD2 HIS A  16       0.475  -8.166 -54.411  0.00  0.00    +0.000 A 
ATOM    138  CE1 HIS A  16       1.210  -7.310 -56.294  0.00  0.00    +0.000 A 
ATOM    139  NE2 HIS A  16       1.589  -7.881 -55.163  0.00  0.00    +0.000 NA
ATOM    140  N   PRO A  17      -2.951  -9.685 -57.877  0.00  0.00    +0.000 N 
ATOM    141  CA  PRO A  17      -2.910 -11.059 -58.422  0.00  0.00    +0.000 C 
ATOM    142  C   PRO A  17      -1.547 -11.732 -58.325  0.00  0.00    +0.000 C 
ATOM    143  O   PRO A  17      -1.494 -12.964 -58.294  0.00  0.00    +0.000 OA
ATOM    144  CB  PRO A  17      -3.338 -10.873 -59.890  0.00  0.00    +0.000 C 
ATOM    145  CG  PRO A  17      -4.191  -9.622 -59.873  0.00  0.00    +0.000 C 
ATOM    146  CD  PRO A  17      -3.526  -8.722 -58.839  0.00  0.00    +0.000 C 
ATOM    147  N   ASP A  18      -0.458 -10.981 -58.246  0.00  0.00    +0.000 N 
ATOM    148  H   ASP A  18      -0.526  -9.981 -58.322  0.00  0.00    +0.000 HD
ATOM    149  CA  ASP A  18       0.862 -11.584 -58.108  0.00  0.00    +0.000 C 
ATOM    150  C   ASP A  18       1.209 -11.916 -56.659  0.00  0.00    +0.000 C 
ATOM    151  O   ASP A  18       2.285 -12.463 -56.407  0.00  0.00    +0.000 OA
ATOM    152  CB  ASP A  18       1.945 -10.660 -58.675  0.00  0.00    +0.000 C 
ATOM    153  CG  ASP A  18       2.133 -10.823 -60.168  0.00  0.00    +0.000 C 
ATOM    154  OD1 ASP A  18       1.752 -11.885 -60.727  0.00  0.00    +0.000 OA
ATOM    155  OD2 ASP A  18       2.683  -9.880 -60.787  0.00  0.00    +0.000 OA
ATOM    156  N   LEU A  19       0.339 -11.577 -55.714  0.00  0.00    +0.000 N 
ATOM    157  H   LEU A  19      -0.511 -11.102 -55.986  0.00  0.00    +0.000 HD
ATOM    158  CA  LEU A  19       0.550 -11.869 -54.301  0.00  0.00    +0.000 C 
ATOM    159  C   LEU A  19       1.194 -13.229 -54.093  0.00  0.00    +0.000 C 
ATOM    160  O   LEU A  19       0.660 -14.258 -54.527  0.00  0.00    +0.000 OA
ATOM    161  CB  LEU A  19      -0.795 -11.826 -53.574  0.00  0.00    +0.000 C 
ATOM    162  CG  LEU A  19      -0.742 -12.159 -52.076  0.00  0.00    +0.000 C 
ATOM    163  CD1 LEU A  19       0.014 -11.077 -51.349  0.00  0.00    +0.000 C 
ATOM    164  CD2 LEU A  19      -2.165 -12.291 -51.538  0.00  0.00    +0.000 C 
ATOM    165  N   NME A  20       2.346 -13.233 -53.424  0.00  0.00    +0.000 N 
ATOM    166  H   NME A  20       2.782 -12.351 -53.208  0.00  0.00    +0.000 HD
ATOM    167  C   NME A  20       2.975 -14.456 -52.992  0.00  0.00    +0.000 C 
TER 
REMARK  Name = /home/xianyang/aimnet2_score_pipelines/work/L1234-fixed-receptor-eint-20260921/L1/P00338/prepared.pdb
REMARK                            x       y       z     vdW  Elec       q    Type
REMARK                         _______ _______ _______ _____ _____    ______ ____
ATOM      1  CH3 ACE B   1     -12.276 -28.652 -48.809  0.00  0.00    +0.000 C 
ATOM      2  C   ACE B   1     -11.881 -27.294 -49.375  0.00  0.00    +0.000 C 
ATOM      3  O   ACE B   1     -12.642 -26.641 -50.093  0.00  0.00    +0.000 OA
ATOM      4  N   VAL B   2     -10.665 -26.860 -49.043  0.00  0.00    +0.000 N 
ATOM      5  H   VAL B   2     -10.058 -27.445 -48.494  0.00  0.00    +0.000 HD
ATOM      6  CA  VAL B   2     -10.195 -25.557 -49.492  0.00  0.00    +0.000 C 
ATOM      7  C   VAL B   2      -9.960 -25.572 -50.998  0.00  0.00    +0.000 C 
ATOM      8  O   VAL B   2      -9.443 -26.547 -51.560  0.00  0.00    +0.000 OA
ATOM      9  CB  VAL B   2      -8.913 -25.159 -48.743  0.00  0.00    +0.000 C 
ATOM     10  CG1 VAL B   2      -8.396 -23.830 -49.273  0.00  0.00    +0.000 C 
ATOM     11  CG2 VAL B   2      -9.193 -25.072 -47.278  0.00  0.00    +0.000 C 
ATOM     12  N   THR B   3     -10.372 -24.498 -51.653  0.00  0.00    +0.000 N 
ATOM     13  H   THR B   3     -10.840 -23.761 -51.145  0.00  0.00    +0.000 HD
ATOM     14  CA  THR B   3     -10.117 -24.281 -53.073  0.00  0.00    +0.000 C 
ATOM     15  C   THR B   3      -8.684 -23.770 -53.205  0.00  0.00    +0.000 C 
ATOM     16  O   THR B   3      -8.349 -22.689 -52.704  0.00  0.00    +0.000 OA
ATOM     17  CB  THR B   3     -11.110 -23.276 -53.644  0.00  0.00    +0.000 C 
ATOM     18  OG1 THR B   3     -11.082 -22.077 -52.855  0.00  0.00    +0.000 OA
ATOM     19  HG1 THR B   3     -10.150 -21.859 -52.716  0.00  0.00    +0.000 HD
ATOM     20  CG2 THR B   3     -12.518 -23.835 -53.626  0.00  0.00    +0.000 C 
ATOM     21  N   LEU B   4      -7.826 -24.562 -53.833  0.00  0.00    +0.000 N 
ATOM     22  H   LEU B   4      -8.142 -25.445 -54.207  0.00  0.00    +0.000 HD
ATOM     23  CA  LEU B   4      -6.425 -24.208 -54.009  0.00  0.00    +0.000 C 
ATOM     24  C   LEU B   4      -6.173 -23.883 -55.473  0.00  0.00    +0.000 C 
ATOM     25  O   LEU B   4      -6.737 -24.530 -56.364  0.00  0.00    +0.000 OA
ATOM     26  CB  LEU B   4      -5.502 -25.346 -53.578  0.00  0.00    +0.000 C 
ATOM     27  CG  LEU B   4      -5.613 -25.832 -52.135  0.00  0.00    +0.000 C 
ATOM     28  CD1 LEU B   4      -4.752 -27.045 -51.896  0.00  0.00    +0.000 C 
ATOM     29  CD2 LEU B   4      -5.240 -24.738 -51.159  0.00  0.00    +0.000 C 
ATOM     30  N   THR B   5      -5.332 -22.883 -55.715  0.00  0.00    +0.000 N 
ATOM     31  H   THR B   5      -4.904 -22.395 -54.943  0.00  0.00    +0.000 HD
ATOM     32  CA  THR B   5      -4.843 -22.667 -57.070  0.00  0.00    +0.000 C 
ATOM     33  C   THR B   5      -3.934 -23.822 -57.474  0.00  0.00    +0.000 C 
ATOM     34  O   THR B   5      -3.502 -24.648 -56.644  0.00  0.00    +0.000 OA
ATOM     35  CB  THR B   5      -4.073 -21.349 -57.180  0.00  0.00    +0.000 C 
ATOM     36  OG1 THR B   5      -2.869 -21.451 -56.428  0.00  0.00    +0.000 OA
ATOM     37  HG1 THR B   5      -2.749 -22.373 -56.139  0.00  0.00    +0.000 HD
ATOM     38  CG2 THR B   5      -4.921 -20.183 -56.691  0.00  0.00    +0.000 C 
ATOM     39  N   SER B   6      -3.612 -23.862 -58.766  0.00  0.00    +0.000 N 
ATOM     40  H   SER B   6      -4.055 -23.252 -59.437  0.00  0.00    +0.000 HD
ATOM     41  CA  SER B   6      -2.669 -24.863 -59.256  0.00  0.00    +0.000 C 
ATOM     42  C   SER B   6      -1.380 -24.849 -58.465  0.00  0.00    +0.000 C 
ATOM     43  O   SER B   6      -0.867 -25.906 -58.088  0.00  0.00    +0.000 OA
ATOM     44  CB  SER B   6      -2.382 -24.625 -60.752  0.00  0.00    +0.000 C 
ATOM     45  OG  SER B   6      -3.595 -24.568 -61.465  0.00  0.00    +0.000 OA
ATOM     46  HG  SER B   6      -3.888 -25.468 -61.649  0.00  0.00    +0.000 HD
ATOM     47  N   NME B   7      -0.846 -23.662 -58.168  0.00  0.00    +0.000 N 
ATOM     48  H   NME B   7      -1.308 -22.811 -58.445  0.00  0.00    +0.000 HD
ATOM     49  C   NME B   7       0.433 -23.613 -57.479  0.00  0.00    +0.000 C 
TER 
REMARK  Name = /home/xianyang/aimnet2_score_pipelines/work/L1234-fixed-receptor-eint-20260921/L1/P00338/prepared.pdb
REMARK                            x       y       z     vdW  Elec       q    Type
REMARK                         _______ _______ _______ _____ _____    ______ ____
ATOM      1  CH3 ACE C   1     -21.957  -8.729 -49.221  0.00  0.00    +0.000 C 
ATOM      2  C   ACE C   1     -21.691 -10.213 -49.502  0.00  0.00    +0.000 C 
ATOM      3  O   ACE C   1     -20.785 -10.856 -48.973  0.00  0.00    +0.000 OA
ATOM      4  N   TRP C   2     -22.479 -10.764 -50.430  0.00  0.00    +0.000 N 
ATOM      5  H   TRP C   2     -23.266 -10.243 -50.782  0.00  0.00    +0.000 HD
ATOM      6  CA  TRP C   2     -22.325 -12.173 -50.816  0.00  0.00    +0.000 C 
ATOM      7  C   TRP C   2     -20.907 -12.473 -51.264  0.00  0.00    +0.000 C 
ATOM      8  O   TRP C   2     -20.390 -13.575 -51.023  0.00  0.00    +0.000 OA
ATOM      9  CB  TRP C   2     -23.315 -12.525 -51.935  0.00  0.00    +0.000 C 
ATOM     10  CG  TRP C   2     -24.733 -12.152 -51.599  0.00  0.00    +0.000 A 
ATOM     11  CD1 TRP C   2     -25.461 -11.133 -52.143  0.00  0.00    +0.000 A 
ATOM     12  CD2 TRP C   2     -25.579 -12.796 -50.658  0.00  0.00    +0.000 A 
ATOM     13  NE1 TRP C   2     -26.710 -11.097 -51.582  0.00  0.00    +0.000 N 
ATOM     14  HE1 TRP C   2     -27.435 -10.430 -51.810  0.00  0.00    +0.000 HD
ATOM     15  CE2 TRP C   2     -26.809 -12.114 -50.668  0.00  0.00    +0.000 A 
ATOM     16  CE3 TRP C   2     -25.416 -13.879 -49.790  0.00  0.00    +0.000 A 
ATOM     17  CZ2 TRP C   2     -27.872 -12.486 -49.852  0.00  0.00    +0.000 A 
ATOM     18  CZ3 TRP C   2     -26.475 -14.248 -48.994  0.00  0.00    +0.000 A 
ATOM     19  CH2 TRP C   2     -27.680 -13.560 -49.026  0.00  0.00    +0.000 A 
ATOM     20  N   SER C   3     -20.269 -11.522 -51.954  0.00  0.00    +0.000 N 
ATOM     21  H   SER C   3     -20.679 -10.605 -52.057  0.00  0.00    +0.000 HD
ATOM     22  CA  SER C   3     -18.970 -11.788 -52.559  0.00  0.00    +0.000 C 
ATOM     23  C   SER C   3     -17.874 -11.977 -51.520  0.00  0.00    +0.000 C 
ATOM     24  O   SER C   3     -16.790 -12.431 -51.870  0.00  0.00    +0.000 OA
ATOM     25  CB  SER C   3     -18.598 -10.656 -53.533  0.00  0.00    +0.000 C 
ATOM     26  OG  SER C   3     -18.540  -9.414 -52.869  0.00  0.00    +0.000 OA
ATOM     27  HG  SER C   3     -17.680  -9.323 -52.445  0.00  0.00    +0.000 HD
ATOM     28  N   GLY C   4     -18.147 -11.667 -50.253  0.00  0.00    +0.000 N 
ATOM     29  H   GLY C   4     -19.061 -11.306 -50.003  0.00  0.00    +0.000 HD
ATOM     30  CA  GLY C   4     -17.143 -11.788 -49.216  0.00  0.00    +0.000 C 
ATOM     31  C   GLY C   4     -17.413 -12.907 -48.239  0.00  0.00    +0.000 C 
ATOM     32  O   GLY C   4     -16.604 -13.173 -47.359  0.00  0.00    +0.000 OA
ATOM     33  N   MET C   5     -18.546 -13.590 -48.393  0.00  0.00    +0.000 N 
ATOM     34  H   MET C   5     -19.154 -13.387 -49.176  0.00  0.00    +0.000 HD
ATOM     35  CA  MET C   5     -18.902 -14.648 -47.454  0.00  0.00    +0.000 C 
ATOM     36  C   MET C   5     -17.987 -15.849 -47.655  0.00  0.00    +0.000 C 
ATOM     37  O   MET C   5     -17.739 -16.278 -48.782  0.00  0.00    +0.000 OA
ATOM     38  CB  MET C   5     -20.347 -15.069 -47.677  0.00  0.00    +0.000 C 
ATOM     39  CG  MET C   5     -21.352 -14.035 -47.233  0.00  0.00    +0.000 C 
ATOM     40  SD  MET C   5     -23.018 -14.487 -47.738  0.00  0.00    +0.000 S 
ATOM     41  CE  MET C   5     -23.263 -16.027 -46.843  0.00  0.00    +0.000 C 
ATOM     42  N   ASN C   6     -17.504 -16.414 -46.552  0.00  0.00    +0.000 N 
ATOM     43  H   ASN C   6     -17.718 -16.063 -45.629  0.00  0.00    +0.000 HD
ATOM     44  CA  ASN C   6     -16.532 -17.482 -46.692  0.00  0.00    +0.000 C 
ATOM     45  C   ASN C   6     -16.410 -18.269 -45.404  0.00  0.00    +0.000 C 
ATOM     46  O   ASN C   6     -16.792 -17.804 -44.328  0.00  0.00    +0.000 OA
ATOM     47  CB  ASN C   6     -15.146 -16.929 -47.093  0.00  0.00    +0.000 C 
ATOM     48  CG  ASN C   6     -14.440 -16.241 -45.932  0.00  0.00    +0.000 C 
ATOM     49  OD1 ASN C   6     -13.685 -16.862 -45.200  0.00  0.00    +0.000 OA
ATOM     50  ND2 ASN C   6     -14.691 -14.939 -45.774  0.00  0.00    +0.000 N 
ATOM     51 HD21 ASN C   6     -14.240 -14.470 -45.011  0.00  0.00    +0.000 HD
ATOM     52 HD22 ASN C   6     -15.330 -14.447 -46.392  0.00  0.00    +0.000 HD
ATOM     53  N   VAL C   7     -15.907 -19.489 -45.547  0.00  0.00    +0.000 N 
ATOM     54  H   VAL C   7     -15.670 -19.794 -46.486  0.00  0.00    +0.000 HD
ATOM     55  CA  VAL C   7     -15.425 -20.305 -44.441  0.00  0.00    +0.000 C 
ATOM     56  C   VAL C   7     -13.993 -20.721 -44.783  0.00  0.00    +0.000 C 
ATOM     57  O   VAL C   7     -13.731 -21.210 -45.894  0.00  0.00    +0.000 OA
ATOM     58  CB  VAL C   7     -16.304 -21.541 -44.204  0.00  0.00    +0.000 C 
ATOM     59  CG1 VAL C   7     -15.615 -22.503 -43.214  0.00  0.00    +0.000 C 
ATOM     60  CG2 VAL C   7     -17.687 -21.126 -43.685  0.00  0.00    +0.000 C 
ATOM     61  N   ALA C   8     -13.067 -20.485 -43.858  0.00  0.00    +0.000 N 
ATOM     62  H   ALA C   8     -13.343 -20.065 -42.984  0.00  0.00    +0.000 HD
ATOM     63  CA  ALA C   8     -11.661 -20.849 -44.052  0.00  0.00    +0.000 C 
ATOM     64  C   ALA C   8     -11.061 -20.209 -45.306  0.00  0.00    +0.000 C 
ATOM     65  O   ALA C   8     -10.156 -20.770 -45.957  0.00  0.00    +0.000 OA
ATOM     66  CB  ALA C   8     -11.502 -22.373 -44.109  0.00  0.00    +0.000 C 
ATOM     67  N   GLY C   9     -11.519 -19.015 -45.652  0.00  0.00    +0.000 N 
ATOM     68  H   GLY C   9     -12.245 -18.563 -45.110  0.00  0.00    +0.000 HD
ATOM     69  CA  GLY C   9     -11.039 -18.359 -46.852  0.00  0.00    +0.000 C 
ATOM     70  C   GLY C   9     -11.566 -18.914 -48.152  0.00  0.00    +0.000 C 
ATOM     71  O   GLY C   9     -11.043 -18.541 -49.210  0.00  0.00    +0.000 OA
ATOM     72  N   VAL C  10     -12.589 -19.775 -48.110  0.00  0.00    +0.000 N 
ATOM     73  H   VAL C  10     -12.912 -20.110 -47.210  0.00  0.00    +0.000 HD
ATOM     74  CA  VAL C  10     -13.221 -20.319 -49.306  0.00  0.00    +0.000 C 
ATOM     75  C   VAL C  10     -14.477 -19.502 -49.593  0.00  0.00    +0.000 C 
ATOM     76  O   VAL C  10     -15.421 -19.495 -48.792  0.00  0.00    +0.000 OA
ATOM     77  CB  VAL C  10     -13.564 -21.805 -49.126  0.00  0.00    +0.000 C 
ATOM     78  CG1 VAL C  10     -14.206 -22.353 -50.410  0.00  0.00    +0.000 C 
ATOM     79  CG2 VAL C  10     -12.313 -22.610 -48.786  0.00  0.00    +0.000 C 
ATOM     80  N   SER C  11     -14.490 -18.804 -50.717  0.00  0.00    +0.000 N 
ATOM     81  H   SER C  11     -13.686 -18.839 -51.325  0.00  0.00    +0.000 HD
ATOM     82  CA  SER C  11     -15.639 -17.985 -51.075  0.00  0.00    +0.000 C 
ATOM     83  C   SER C  11     -16.856 -18.858 -51.348  0.00  0.00    +0.000 C 
ATOM     84  O   SER C  11     -16.818 -19.751 -52.209  0.00  0.00    +0.000 OA
ATOM     85  CB  SER C  11     -15.335 -17.138 -52.314  0.00  0.00    +0.000 C 
ATOM     86  OG  SER C  11     -16.558 -16.637 -52.844  0.00  0.00    +0.000 OA
ATOM     87  HG  SER C  11     -16.463 -15.683 -52.917  0.00  0.00    +0.000 HD
ATOM     88  N   LEU C  12     -17.941 -18.600 -50.627  0.00  0.00    +0.000 N 
ATOM     89  H   LEU C  12     -17.917 -17.870 -49.921  0.00  0.00    +0.000 HD
ATOM     90  CA  LEU C  12     -19.155 -19.355 -50.889  0.00  0.00    +0.000 C 
ATOM     91  C   LEU C  12     -19.719 -19.018 -52.267  0.00  0.00    +0.000 C 
ATOM     92  O   LEU C  12     -20.329 -19.880 -52.905  0.00  0.00    +0.000 OA
ATOM     93  CB  LEU C  12     -20.201 -19.087 -49.810  0.00  0.00    +0.000 C 
ATOM     94  CG  LEU C  12     -19.758 -19.309 -48.352  0.00  0.00    +0.000 C 
ATOM     95  CD1 LEU C  12     -20.975 -19.273 -47.408  0.00  0.00    +0.000 C 
ATOM     96  CD2 LEU C  12     -18.986 -20.600 -48.186  0.00  0.00    +0.000 C 
ATOM     97  N   LYS C  13     -19.561 -17.770 -52.715  0.00  0.00    +0.000 N 
ATOM     98  H   LYS C  13     -19.031 -17.113 -52.158  0.00  0.00    +0.000 HD
ATOM     99  CA  LYS C  13     -20.039 -17.402 -54.040  0.00  0.00    +0.000 C 
ATOM    100  C   LYS C  13     -19.230 -18.101 -55.126  0.00  0.00    +0.000 C 
ATOM    101  O   LYS C  13     -19.776 -18.422 -56.181  0.00  0.00    +0.000 OA
ATOM    102  CB  LYS C  13     -19.991 -15.887 -54.238  0.00  0.00    +0.000 C 
ATOM    103  CG  LYS C  13     -20.658 -15.412 -55.547  0.00  0.00    +0.000 C 
ATOM    104  CD  LYS C  13     -21.001 -13.931 -55.497  0.00  0.00    +0.000 C 
ATOM    105  CE  LYS C  13     -21.822 -13.493 -56.709  0.00  0.00    +0.000 C 
ATOM    106  NZ  LYS C  13     -23.153 -14.172 -56.801  0.00  0.00    +0.000 N 
ATOM    107  HZ1 LYS C  13     -23.029 -15.175 -56.873  0.00  0.00    +0.000 HD
ATOM    108  HZ2 LYS C  13     -23.710 -13.978 -55.978  0.00  0.00    +0.000 HD
ATOM    109  HZ3 LYS C  13     -23.662 -13.858 -57.618  0.00  0.00    +0.000 HD
ATOM    110  N   THR C  14     -17.942 -18.352 -54.880  0.00  0.00    +0.000 N 
ATOM    111  H   THR C  14     -17.511 -17.999 -54.034  0.00  0.00    +0.000 HD
ATOM    112  CA  THR C  14     -17.132 -19.101 -55.835  0.00  0.00    +0.000 C 
ATOM    113  C   THR C  14     -17.648 -20.527 -55.990  0.00  0.00    +0.000 C 
ATOM    114  O   THR C  14     -17.714 -21.059 -57.109  0.00  0.00    +0.000 OA
ATOM    115  CB  THR C  14     -15.667 -19.097 -55.402  0.00  0.00    +0.000 C 
ATOM    116  OG1 THR C  14     -15.146 -17.769 -55.543  0.00  0.00    +0.000 OA
ATOM    117  HG1 THR C  14     -14.192 -17.837 -55.598  0.00  0.00    +0.000 HD
ATOM    118  CG2 THR C  14     -14.832 -20.053 -56.228  0.00  0.00    +0.000 C 
ATOM    119  N   LEU C  15     -18.027 -21.163 -54.882  0.00  0.00    +0.000 N 
ATOM    120  H   LEU C  15     -17.933 -20.709 -53.982  0.00  0.00    +0.000 HD
ATOM    121  CA  LEU C  15     -18.576 -22.516 -54.966  0.00  0.00    +0.000 C 
ATOM    122  C   LEU C  15     -20.000 -22.506 -55.502  0.00  0.00    +0.000 C 
ATOM    123  O   LEU C  15     -20.409 -23.443 -56.193  0.00  0.00    +0.000 OA
ATOM    124  CB  LEU C  15     -18.555 -23.173 -53.580  0.00  0.00    +0.000 C 
ATOM    125  CG  LEU C  15     -17.188 -23.340 -52.891  0.00  0.00    +0.000 C 
ATOM    126  CD1 LEU C  15     -17.434 -23.922 -51.494  0.00  0.00    +0.000 C 
ATOM    127  CD2 LEU C  15     -16.292 -24.229 -53.704  0.00  0.00    +0.000 C 
ATOM    128  N   NME C  16     -20.755 -21.453 -55.215  0.00  0.00    +0.000 N 
ATOM    129  H   NME C  16     -20.347 -20.737 -54.629  0.00  0.00    +0.000 HD
ATOM    130  C   NME C  16     -22.199 -21.394 -55.451  0.00  0.00    +0.000 C 
TER 
