REMARK  Name = /home/xianyang/aimnet2_score_pipelines/work/L1234-fixed-receptor-eint-20260921/L4/P09871/prepared.pdb
REMARK                            x       y       z     vdW  Elec       q    Type
REMARK                         _______ _______ _______ _____ _____    ______ ____
ATOM      1  CH3 ACE A   1      14.585  -2.878   5.748  0.00  0.00    +0.000 C 
ATOM      2  C   ACE A   1      16.064  -3.241   5.648  0.00  0.00    +0.000 C 
ATOM      3  O   ACE A   1      16.929  -2.364   5.593  0.00  0.00    +0.000 OA
ATOM      4  N   ALA A   2      16.357  -4.545   5.614  0.00  0.00    +0.000 N 
ATOM      5  H   ALA A   2      15.628  -5.236   5.681  0.00  0.00    +0.000 HD
ATOM      6  CA  ALA A   2      17.743  -4.962   5.409  0.00  0.00    +0.000 C 
ATOM      7  C   ALA A   2      18.323  -4.380   4.120  0.00  0.00    +0.000 C 
ATOM      8  O   ALA A   2      19.499  -3.999   4.072  0.00  0.00    +0.000 OA
ATOM      9  CB  ALA A   2      17.842  -6.484   5.383  0.00  0.00    +0.000 C 
ATOM     10  N   HIS A   3      17.524  -4.305   3.057  0.00  0.00    +0.000 N 
ATOM     11  H   HIS A   3      16.567  -4.622   3.079  0.00  0.00    +0.000 HD
ATOM     12  CA  HIS A   3      18.122  -3.845   1.810  0.00  0.00    +0.000 C 
ATOM     13  C   HIS A   3      18.480  -2.362   1.854  0.00  0.00    +0.000 C 
ATOM     14  O   HIS A   3      19.202  -1.893   0.966  0.00  0.00    +0.000 OA
ATOM     15  CB  HIS A   3      17.207  -4.170   0.619  0.00  0.00    +0.000 C 
ATOM     16  CG  HIS A   3      16.040  -3.243   0.451  0.00  0.00    +0.000 A 
ATOM     17  ND1 HIS A   3      14.767  -3.580   0.852  0.00  0.00    +0.000 NA
ATOM     18  CD2 HIS A   3      15.941  -2.020  -0.127  0.00  0.00    +0.000 A 
ATOM     19  CE1 HIS A   3      13.934  -2.599   0.546  0.00  0.00    +0.000 A 
ATOM     20  NE2 HIS A   3      14.621  -1.634  -0.038  0.00  0.00    +0.000 N 
ATOM     21  HE2 HIS A   3      14.213  -0.778  -0.377  0.00  0.00    +0.000 HD
ATOM     22  N   VAL A   4      18.050  -1.635   2.888  0.00  0.00    +0.000 N 
ATOM     23  H   VAL A   4      17.494  -2.063   3.617  0.00  0.00    +0.000 HD
ATOM     24  CA  VAL A   4      18.434  -0.228   3.008  0.00  0.00    +0.000 C 
ATOM     25  C   VAL A   4      19.858  -0.099   3.534  0.00  0.00    +0.000 C 
ATOM     26  O   VAL A   4      20.594   0.805   3.118  0.00  0.00    +0.000 OA
ATOM     27  CB  VAL A   4      17.432   0.542   3.891  0.00  0.00    +0.000 C 
ATOM     28  CG1 VAL A   4      17.918   1.952   4.188  0.00  0.00    +0.000 C 
ATOM     29  CG2 VAL A   4      16.043   0.583   3.234  0.00  0.00    +0.000 C 
ATOM     30  N   VAL A   5      20.280  -0.997   4.426  0.00  0.00    +0.000 N 
ATOM     31  H   VAL A   5      19.660  -1.751   4.691  0.00  0.00    +0.000 HD
ATOM     32  CA  VAL A   5      21.586  -0.893   5.067  0.00  0.00    +0.000 C 
ATOM     33  C   VAL A   5      22.542  -2.003   4.653  0.00  0.00    +0.000 C 
ATOM     34  O   VAL A   5      23.666  -2.058   5.177  0.00  0.00    +0.000 OA
ATOM     35  CB  VAL A   5      21.461  -0.838   6.606  0.00  0.00    +0.000 C 
ATOM     36  CG1 VAL A   5      20.841   0.462   7.048  0.00  0.00    +0.000 C 
ATOM     37  CG2 VAL A   5      20.661  -2.018   7.144  0.00  0.00    +0.000 C 
ATOM     38  N   GLU A   6      22.148  -2.878   3.720  0.00  0.00    +0.000 N 
ATOM     39  H   GLU A   6      21.192  -2.869   3.386  0.00  0.00    +0.000 HD
ATOM     40  CA  GLU A   6      23.017  -4.001   3.379  0.00  0.00    +0.000 C 
ATOM     41  C   GLU A   6      24.349  -3.533   2.792  0.00  0.00    +0.000 C 
ATOM     42  O   GLU A   6      25.364  -4.222   2.940  0.00  0.00    +0.000 OA
ATOM     43  CB  GLU A   6      22.308  -4.959   2.413  0.00  0.00    +0.000 C 
ATOM     44  CG  GLU A   6      22.016  -4.364   1.048  0.00  0.00    +0.000 C 
ATOM     45  CD  GLU A   6      21.287  -5.325   0.133  0.00  0.00    +0.000 C 
ATOM     46  OE1 GLU A   6      21.309  -6.557   0.382  0.00  0.00    +0.000 OA
ATOM     47  OE2 GLU A   6      20.698  -4.837  -0.848  0.00  0.00    +0.000 OA
ATOM     48  N   GLY A   7      24.373  -2.372   2.145  0.00  0.00    +0.000 N 
ATOM     49  H   GLY A   7      23.504  -1.874   2.023  0.00  0.00    +0.000 HD
ATOM     50  CA  GLY A   7      25.595  -1.821   1.605  0.00  0.00    +0.000 C 
ATOM     51  C   GLY A   7      26.265  -0.739   2.428  0.00  0.00    +0.000 C 
ATOM     52  O   GLY A   7      27.268  -0.176   1.972  0.00  0.00    +0.000 OA
ATOM     53  N   NME A   8      25.771  -0.435   3.630  0.00  0.00    +0.000 N 
ATOM     54  H   NME A   8      25.031  -1.011   4.019  0.00  0.00    +0.000 HD
ATOM     55  C   NME A   8      26.213   0.760   4.350  0.00  0.00    +0.000 C 
TER 
REMARK  Name = /home/xianyang/aimnet2_score_pipelines/work/L1234-fixed-receptor-eint-20260921/L4/P09871/prepared.pdb
REMARK                            x       y       z     vdW  Elec       q    Type
REMARK                         _______ _______ _______ _____ _____    ______ ____
ATOM      1  CH3 ACE B   1      27.166 -10.123  -4.828  0.00  0.00    +0.000 C 
ATOM      2  C   ACE B   1      26.633  -8.995  -5.707  0.00  0.00    +0.000 C 
ATOM      3  O   ACE B   1      27.272  -7.947  -5.835  0.00  0.00    +0.000 OA
ATOM      4  N   VAL B   2      25.475  -9.194  -6.326  0.00  0.00    +0.000 N 
ATOM      5  H   VAL B   2      24.997 -10.074  -6.217  0.00  0.00    +0.000 HD
ATOM      6  CA  VAL B   2      24.825  -8.140  -7.098  0.00  0.00    +0.000 C 
ATOM      7  C   VAL B   2      23.462  -7.872  -6.471  0.00  0.00    +0.000 C 
ATOM      8  O   VAL B   2      22.463  -8.488  -6.874  0.00  0.00    +0.000 OA
ATOM      9  CB  VAL B   2      24.693  -8.524  -8.580  0.00  0.00    +0.000 C 
ATOM     10  CG1 VAL B   2      24.214  -7.319  -9.398  0.00  0.00    +0.000 C 
ATOM     11  CG2 VAL B   2      26.022  -9.058  -9.109  0.00  0.00    +0.000 C 
ATOM     12  N   PRO B   3      23.375  -6.968  -5.492  0.00  0.00    +0.000 N 
ATOM     13  CA  PRO B   3      22.102  -6.780  -4.780  0.00  0.00    +0.000 C 
ATOM     14  C   PRO B   3      21.000  -6.205  -5.643  0.00  0.00    +0.000 C 
ATOM     15  O   PRO B   3      19.824  -6.433  -5.344  0.00  0.00    +0.000 OA
ATOM     16  CB  PRO B   3      22.472  -5.819  -3.645  0.00  0.00    +0.000 C 
ATOM     17  CG  PRO B   3      23.969  -5.888  -3.539  0.00  0.00    +0.000 C 
ATOM     18  CD  PRO B   3      24.455  -6.147  -4.922  0.00  0.00    +0.000 C 
ATOM     19  N   GLU B   4      21.323  -5.435  -6.679  0.00  0.00    +0.000 N 
ATOM     20  H   GLU B   4      22.300  -5.280  -6.932  0.00  0.00    +0.000 HD
ATOM     21  CA  GLU B   4      20.290  -5.087  -7.640  0.00  0.00    +0.000 C 
ATOM     22  C   GLU B   4      19.786  -6.382  -8.261  0.00  0.00    +0.000 C 
ATOM     23  O   GLU B   4      20.503  -7.379  -8.321  0.00  0.00    +0.000 OA
ATOM     24  CB  GLU B   4      20.839  -4.134  -8.705  0.00  0.00    +0.000 C 
ATOM     25  CG  GLU B   4      21.533  -2.880  -8.155  0.00  0.00    +0.000 C 
ATOM     26  CD  GLU B   4      22.954  -3.144  -7.657  0.00  0.00    +0.000 C 
ATOM     27  OE1 GLU B   4      23.477  -4.259  -7.894  0.00  0.00    +0.000 OA
ATOM     28  OE2 GLU B   4      23.547  -2.243  -7.017  0.00  0.00    +0.000 OA
ATOM     29  N   GLY B   5      18.531  -6.415  -8.666  0.00  0.00    +0.000 N 
ATOM     30  H   GLY B   5      17.911  -5.624  -8.638  0.00  0.00    +0.000 HD
ATOM     31  CA  GLY B   5      18.156  -7.715  -9.212  0.00  0.00    +0.000 C 
ATOM     32  C   GLY B   5      18.066  -8.861  -8.217  0.00  0.00    +0.000 C 
ATOM     33  O   GLY B   5      17.996 -10.024  -8.630  0.00  0.00    +0.000 OA
ATOM     34  N   ARG B   6      18.091  -8.574  -6.916  0.00  0.00    +0.000 N 
ATOM     35  H   ARG B   6      18.383  -7.648  -6.626  0.00  0.00    +0.000 HD
ATOM     36  CA  ARG B   6      17.573  -9.510  -5.930  0.00  0.00    +0.000 C 
ATOM     37  C   ARG B   6      16.187  -9.997  -6.333  0.00  0.00    +0.000 C 
ATOM     38  O   ARG B   6      15.370  -9.230  -6.840  0.00  0.00    +0.000 OA
ATOM     39  CB  ARG B   6      17.487  -8.822  -4.563  0.00  0.00    +0.000 C 
ATOM     40  CG  ARG B   6      16.811  -9.638  -3.484  0.00  0.00    +0.000 C 
ATOM     41  CD  ARG B   6      16.814  -8.838  -2.186  0.00  0.00    +0.000 C 
ATOM     42  NE  ARG B   6      18.176  -8.505  -1.771  0.00  0.00    +0.000 N 
ATOM     43  HE  ARG B   6      18.526  -7.572  -1.950  0.00  0.00    +0.000 HD
ATOM     44  CZ  ARG B   6      18.966  -9.337  -1.103  0.00  0.00    +0.000 C 
ATOM     45  NH1 ARG B   6      18.558 -10.548  -0.758  0.00  0.00    +0.000 N 
ATOM     46 HH11 ARG B   6      17.592 -10.810  -0.877  0.00  0.00    +0.000 HD
ATOM     47 HH12 ARG B   6      19.206 -11.098  -0.226  0.00  0.00    +0.000 HD
ATOM     48  NH2 ARG B   6      20.188  -8.938  -0.755  0.00  0.00    +0.000 N 
ATOM     49 HH21 ARG B   6      20.271  -8.106  -0.153  0.00  0.00    +0.000 HD
ATOM     50 HH22 ARG B   6      20.804  -8.722  -1.517  0.00  0.00    +0.000 HD
ATOM     51  N   THR B   7      15.919 -11.278  -6.084  0.00  0.00    +0.000 N 
ATOM     52  H   THR B   7      16.681 -11.906  -5.887  0.00  0.00    +0.000 HD
ATOM     53  CA  THR B   7      14.575 -11.825  -6.215  0.00  0.00    +0.000 C 
ATOM     54  C   THR B   7      14.078 -12.490  -4.938  0.00  0.00    +0.000 C 
ATOM     55  O   THR B   7      12.933 -12.957  -4.911  0.00  0.00    +0.000 OA
ATOM     56  CB  THR B   7      14.508 -12.833  -7.370  0.00  0.00    +0.000 C 
ATOM     57  OG1 THR B   7      15.403 -13.919  -7.102  0.00  0.00    +0.000 OA
ATOM     58  HG1 THR B   7      15.898 -14.078  -7.915  0.00  0.00    +0.000 HD
ATOM     59  CG2 THR B   7      14.891 -12.160  -8.681  0.00  0.00    +0.000 C 
ATOM     60  N   ASN B   8      14.888 -12.546  -3.882  0.00  0.00    +0.000 N 
ATOM     61  H   ASN B   8      15.821 -12.184  -3.967  0.00  0.00    +0.000 HD
ATOM     62  CA  ASN B   8      14.477 -13.132  -2.604  0.00  0.00    +0.000 C 
ATOM     63  C   ASN B   8      14.619 -12.070  -1.517  0.00  0.00    +0.000 C 
ATOM     64  O   ASN B   8      15.710 -11.869  -0.973  0.00  0.00    +0.000 OA
ATOM     65  CB  ASN B   8      15.293 -14.378  -2.251  0.00  0.00    +0.000 C 
ATOM     66  CG  ASN B   8      14.803 -15.038  -0.957  0.00  0.00    +0.000 C 
ATOM     67  OD1 ASN B   8      14.019 -14.451  -0.216  0.00  0.00    +0.000 OA
ATOM     68  ND2 ASN B   8      15.262 -16.256  -0.686  0.00  0.00    +0.000 N 
ATOM     69 HD21 ASN B   8      14.934 -16.655   0.180  0.00  0.00    +0.000 HD
ATOM     70 HD22 ASN B   8      15.906 -16.718  -1.298  0.00  0.00    +0.000 HD
ATOM     71  N   PHE B   9      13.510 -11.404  -1.187  0.00  0.00    +0.000 N 
ATOM     72  H   PHE B   9      12.637 -11.652  -1.627  0.00  0.00    +0.000 HD
ATOM     73  CA  PHE B   9      13.495 -10.396  -0.135  0.00  0.00    +0.000 C 
ATOM     74  C   PHE B   9      13.063 -10.946   1.223  0.00  0.00    +0.000 C 
ATOM     75  O   PHE B   9      12.654 -10.166   2.089  0.00  0.00    +0.000 OA
ATOM     76  CB  PHE B   9      12.576  -9.236  -0.527  0.00  0.00    +0.000 C 
ATOM     77  CG  PHE B   9      13.147  -8.332  -1.584  0.00  0.00    +0.000 A 
ATOM     78  CD1 PHE B   9      13.162  -8.713  -2.915  0.00  0.00    +0.000 A 
ATOM     79  CD2 PHE B   9      13.641  -7.077  -1.248  0.00  0.00    +0.000 A 
ATOM     80  CE1 PHE B   9      13.680  -7.862  -3.883  0.00  0.00    +0.000 A 
ATOM     81  CE2 PHE B   9      14.160  -6.236  -2.204  0.00  0.00    +0.000 A 
ATOM     82  CZ  PHE B   9      14.180  -6.630  -3.525  0.00  0.00    +0.000 A 
ATOM     83  N   ASP B  10      13.126 -12.259   1.431  0.00  0.00    +0.000 N 
ATOM     84  H   ASP B  10      13.519 -12.888   0.741  0.00  0.00    +0.000 HD
ATOM     85  CA  ASP B  10      12.729 -12.818   2.720  0.00  0.00    +0.000 C 
ATOM     86  C   ASP B  10      13.592 -12.239   3.834  0.00  0.00    +0.000 C 
ATOM     87  O   ASP B  10      14.793 -12.026   3.653  0.00  0.00    +0.000 OA
ATOM     88  CB  ASP B  10      12.858 -14.345   2.689  0.00  0.00    +0.000 C 
ATOM     89  CG  ASP B  10      12.120 -15.023   3.823  0.00  0.00    +0.000 C 
ATOM     90  OD1 ASP B  10      11.190 -14.415   4.395  0.00  0.00    +0.000 OA
ATOM     91  OD2 ASP B  10      12.470 -16.180   4.135  0.00  0.00    +0.000 OA
ATOM     92  N   NME B  11      12.969 -11.979   4.994  0.00  0.00    +0.000 N 
ATOM     93  H   NME B  11      12.023 -12.333   5.085  0.00  0.00    +0.000 HD
ATOM     94  C   NME B  11      13.670 -11.478   6.188  0.00  0.00    +0.000 C 
TER 
REMARK  Name = /home/xianyang/aimnet2_score_pipelines/work/L1234-fixed-receptor-eint-20260921/L4/P09871/prepared.pdb
REMARK                            x       y       z     vdW  Elec       q    Type
REMARK                         _______ _______ _______ _____ _____    ______ ____
ATOM      1  CH3 ACE C   1      -3.922   3.044  -7.013  0.00  0.00    +0.000 C 
ATOM      2  C   ACE C   1      -2.938   3.552  -5.983  0.00  0.00    +0.000 C 
ATOM      3  O   ACE C   1      -1.849   3.996  -6.357  0.00  0.00    +0.000 OA
ATOM      4  N   MET C   2      -3.288   3.499  -4.697  0.00  0.00    +0.000 N 
ATOM      5  H   MET C   2      -4.146   3.035  -4.451  0.00  0.00    +0.000 HD
ATOM      6  CA  MET C   2      -2.384   3.905  -3.624  0.00  0.00    +0.000 C 
ATOM      7  C   MET C   2      -1.401   2.784  -3.292  0.00  0.00    +0.000 C 
ATOM      8  O   MET C   2      -1.789   1.620  -3.164  0.00  0.00    +0.000 OA
ATOM      9  CB  MET C   2      -3.189   4.290  -2.382  0.00  0.00    +0.000 C 
ATOM     10  CG  MET C   2      -4.117   5.479  -2.608  0.00  0.00    +0.000 C 
ATOM     11  SD  MET C   2      -5.165   5.854  -1.200  0.00  0.00    +0.000 S 
ATOM     12  CE  MET C   2      -6.161   4.372  -1.117  0.00  0.00    +0.000 C 
ATOM     13  N   ASP C   3      -0.125   3.142  -3.126  0.00  0.00    +0.000 N 
ATOM     14  H   ASP C   3       0.169   4.103  -3.222  0.00  0.00    +0.000 HD
ATOM     15  CA  ASP C   3       0.924   2.133  -3.049  0.00  0.00    +0.000 C 
ATOM     16  C   ASP C   3       2.192   2.793  -2.519  0.00  0.00    +0.000 C 
ATOM     17  O   ASP C   3       2.358   4.012  -2.593  0.00  0.00    +0.000 OA
ATOM     18  CB  ASP C   3       1.161   1.510  -4.439  0.00  0.00    +0.000 C 
ATOM     19  CG  ASP C   3       1.911   0.183  -4.406  0.00  0.00    +0.000 C 
ATOM     20  OD1 ASP C   3       2.121  -0.407  -3.325  0.00  0.00    +0.000 OA
ATOM     21  OD2 ASP C   3       2.266  -0.294  -5.513  0.00  0.00    +0.000 OA
ATOM     22  N   SER C   4       3.077   1.974  -1.971  0.00  0.00    +0.000 N 
ATOM     23  H   SER C   4       2.896   0.977  -2.065  0.00  0.00    +0.000 HD
ATOM     24  CA  SER C   4       4.436   2.442  -1.738  0.00  0.00    +0.000 C 
ATOM     25  C   SER C   4       5.222   2.369  -3.049  0.00  0.00    +0.000 C 
ATOM     26  O   SER C   4       4.742   1.839  -4.054  0.00  0.00    +0.000 OA
ATOM     27  CB  SER C   4       5.098   1.606  -0.644  0.00  0.00    +0.000 C 
ATOM     28  OG  SER C   4       5.111   0.244  -1.040  0.00  0.00    +0.000 OA
ATOM     29  HG  SER C   4       4.841   0.191  -1.983  0.00  0.00    +0.000 HD
ATOM     30  N   CYS C   5       6.436   2.925  -3.055  0.00  0.00    +0.000 N 
ATOM     31  H   CYS C   5       6.729   3.529  -2.285  0.00  0.00    +0.000 HD
ATOM     32  CA  CYS C   5       7.229   2.909  -4.273  0.00  0.00    +0.000 C 
ATOM     33  C   CYS C   5       8.707   2.989  -3.914  0.00  0.00    +0.000 C 
ATOM     34  O   CYS C   5       9.088   3.024  -2.741  0.00  0.00    +0.000 OA
ATOM     35  CB  CYS C   5       6.828   4.048  -5.221  0.00  0.00    +0.000 C 
ATOM     36  SG  CYS C   5       7.268   3.710  -6.975  0.00  0.00    +0.000 S 
ATOM     37  N   LYS C   6       9.527   3.017  -4.957  0.00  0.00    +0.000 N 
ATOM     38  H   LYS C   6       9.103   3.029  -5.875  0.00  0.00    +0.000 HD
ATOM     39  CA  LYS C   6      10.964   3.197  -4.842  0.00  0.00    +0.000 C 
ATOM     40  C   LYS C   6      11.284   4.416  -3.984  0.00  0.00    +0.000 C 
ATOM     41  O   LYS C   6      10.763   5.507  -4.222  0.00  0.00    +0.000 OA
ATOM     42  CB  LYS C   6      11.547   3.368  -6.248  0.00  0.00    +0.000 C 
ATOM     43  CG  LYS C   6      13.059   3.392  -6.319  0.00  0.00    +0.000 C 
ATOM     44  CD  LYS C   6      13.605   2.012  -6.067  0.00  0.00    +0.000 C 
ATOM     45  CE  LYS C   6      15.114   2.003  -6.151  0.00  0.00    +0.000 C 
ATOM     46  NZ  LYS C   6      15.578   0.606  -6.035  0.00  0.00    +0.000 N 
ATOM     47  HZ1 LYS C   6      16.506   0.573  -5.628  0.00  0.00    +0.000 HD
ATOM     48  HZ2 LYS C   6      14.957   0.058  -5.454  0.00  0.00    +0.000 HD
ATOM     49  HZ3 LYS C   6      15.627   0.171  -6.949  0.00  0.00    +0.000 HD
ATOM     50  N   GLY C   7      12.163   4.232  -2.999  0.00  0.00    +0.000 N 
ATOM     51  H   GLY C   7      12.544   3.319  -2.841  0.00  0.00    +0.000 HD
ATOM     52  CA  GLY C   7      12.511   5.306  -2.092  0.00  0.00    +0.000 C 
ATOM     53  C   GLY C   7      11.716   5.323  -0.808  0.00  0.00    +0.000 C 
ATOM     54  O   GLY C   7      12.088   6.051   0.118  0.00  0.00    +0.000 OA
ATOM     55  N   ASP C   8      10.624   4.552  -0.729  0.00  0.00    +0.000 N 
ATOM     56  H   ASP C   8      10.209   4.177  -1.575  0.00  0.00    +0.000 HD
ATOM     57  CA  ASP C   8       9.867   4.394   0.509  0.00  0.00    +0.000 C 
ATOM     58  C   ASP C   8      10.387   3.263   1.375  0.00  0.00    +0.000 C 
ATOM     59  O   ASP C   8       9.954   3.144   2.524  0.00  0.00    +0.000 OA
ATOM     60  CB  ASP C   8       8.388   4.139   0.199  0.00  0.00    +0.000 C 
ATOM     61  CG  ASP C   8       7.714   5.350  -0.418  0.00  0.00    +0.000 C 
ATOM     62  OD1 ASP C   8       8.024   6.471   0.023  0.00  0.00    +0.000 OA
ATOM     63  OD2 ASP C   8       6.882   5.184  -1.339  0.00  0.00    +0.000 OA
ATOM     64  N   SER C   9      11.290   2.444   0.832  0.00  0.00    +0.000 N 
ATOM     65  H   SER C   9      11.578   2.690  -0.097  0.00  0.00    +0.000 HD
ATOM     66  CA  SER C   9      11.903   1.306   1.509  0.00  0.00    +0.000 C 
ATOM     67  C   SER C   9      12.177   1.551   2.984  0.00  0.00    +0.000 C 
ATOM     68  O   SER C   9      12.815   2.537   3.351  0.00  0.00    +0.000 OA
ATOM     69  CB  SER C   9      13.220   0.981   0.815  0.00  0.00    +0.000 C 
ATOM     70  OG  SER C   9      12.965   0.468  -0.472  0.00  0.00    +0.000 OA
ATOM     71  HG  SER C   9      12.289   1.015  -0.871  0.00  0.00    +0.000 HD
ATOM     72  N   GLY C  10      11.783   0.583   3.807  0.00  0.00    +0.000 N 
ATOM     73  H   GLY C  10      11.307  -0.229   3.427  0.00  0.00    +0.000 HD
ATOM     74  CA  GLY C  10      12.097   0.595   5.221  0.00  0.00    +0.000 C 
ATOM     75  C   GLY C  10      11.171   1.410   6.077  0.00  0.00    +0.000 C 
ATOM     76  O   GLY C  10      11.260   1.318   7.304  0.00  0.00    +0.000 OA
ATOM     77  N   NME C  11      10.279   2.203   5.485  0.00  0.00    +0.000 N 
ATOM     78  H   NME C  11      10.313   2.353   4.480  0.00  0.00    +0.000 HD
ATOM     79  C   NME C  11       9.324   2.945   6.286  0.00  0.00    +0.000 C 
ATOM     80  CH3 ACE D   1       5.176  -3.801   8.349  0.00  0.00    +0.000 C 
ATOM     81  C   ACE D   1       6.301  -2.812   8.114  0.00  0.00    +0.000 C 
ATOM     82  O   ACE D   1       6.329  -1.737   8.700  0.00  0.00    +0.000 OA
ATOM     83  N   LEU D   2       7.230  -3.200   7.243  0.00  0.00    +0.000 N 
ATOM     84  H   LEU D   2       7.168  -4.139   6.875  0.00  0.00    +0.000 HD
ATOM     85  CA  LEU D   2       8.246  -2.292   6.710  0.00  0.00    +0.000 C 
ATOM     86  C   LEU D   2       8.203  -2.378   5.195  0.00  0.00    +0.000 C 
ATOM     87  O   LEU D   2       8.187  -3.481   4.646  0.00  0.00    +0.000 OA
ATOM     88  CB  LEU D   2       9.655  -2.654   7.196  0.00  0.00    +0.000 C 
ATOM     89  CG  LEU D   2       9.859  -2.742   8.710  0.00  0.00    +0.000 C 
ATOM     90  CD1 LEU D   2      11.190  -3.404   9.016  0.00  0.00    +0.000 C 
ATOM     91  CD2 LEU D   2       9.810  -1.356   9.334  0.00  0.00    +0.000 C 
ATOM     92  N   VAL D   3       8.188  -1.233   4.511  0.00  0.00    +0.000 N 
ATOM     93  H   VAL D   3       8.211  -0.350   4.999  0.00  0.00    +0.000 HD
ATOM     94  CA  VAL D   3       8.208  -1.263   3.044  0.00  0.00    +0.000 C 
ATOM     95  C   VAL D   3       9.385  -2.099   2.558  0.00  0.00    +0.000 C 
ATOM     96  O   VAL D   3      10.540  -1.806   2.880  0.00  0.00    +0.000 OA
ATOM     97  CB  VAL D   3       8.281   0.157   2.455  0.00  0.00    +0.000 C 
ATOM     98  CG1 VAL D   3       8.391   0.082   0.938  0.00  0.00    +0.000 C 
ATOM     99  CG2 VAL D   3       7.054   0.959   2.885  0.00  0.00    +0.000 C 
ATOM    100  N   SER D   4       9.113  -3.149   1.778  0.00  0.00    +0.000 N 
ATOM    101  H   SER D   4       8.150  -3.383   1.559  0.00  0.00    +0.000 HD
ATOM    102  CA  SER D   4      10.174  -4.060   1.351  0.00  0.00    +0.000 C 
ATOM    103  C   SER D   4      10.328  -4.033  -0.164  0.00  0.00    +0.000 C 
ATOM    104  O   SER D   4      11.341  -3.542  -0.661  0.00  0.00    +0.000 OA
ATOM    105  CB  SER D   4       9.910  -5.483   1.869  0.00  0.00    +0.000 C 
ATOM    106  OG  SER D   4      10.937  -6.407   1.461  0.00  0.00    +0.000 OA
ATOM    107  HG  SER D   4      11.625  -6.436   2.140  0.00  0.00    +0.000 HD
ATOM    108  N   TRP D   5       9.360  -4.533  -0.917  0.00  0.00    +0.000 N 
ATOM    109  H   TRP D   5       8.492  -4.845  -0.498  0.00  0.00    +0.000 HD
ATOM    110  CA  TRP D   5       9.520  -4.673  -2.359  0.00  0.00    +0.000 C 
ATOM    111  C   TRP D   5       8.133  -4.775  -2.974  0.00  0.00    +0.000 C 
ATOM    112  O   TRP D   5       7.125  -4.763  -2.272  0.00  0.00    +0.000 OA
ATOM    113  CB  TRP D   5      10.390  -5.886  -2.702  0.00  0.00    +0.000 C 
ATOM    114  CG  TRP D   5       9.754  -7.211  -2.415  0.00  0.00    +0.000 A 
ATOM    115  CD1 TRP D   5       9.617  -7.820  -1.200  0.00  0.00    +0.000 A 
ATOM    116  CD2 TRP D   5       9.183  -8.095  -3.373  0.00  0.00    +0.000 A 
ATOM    117  NE1 TRP D   5       8.990  -9.037  -1.342  0.00  0.00    +0.000 N 
ATOM    118  HE1 TRP D   5       8.815  -9.683  -0.586  0.00  0.00    +0.000 HD
ATOM    119  CE2 TRP D   5       8.710  -9.225  -2.673  0.00  0.00    +0.000 A 
ATOM    120  CE3 TRP D   5       9.020  -8.037  -4.763  0.00  0.00    +0.000 A 
ATOM    121  CZ2 TRP D   5       8.085 -10.291  -3.317  0.00  0.00    +0.000 A 
ATOM    122  CZ3 TRP D   5       8.402  -9.093  -5.400  0.00  0.00    +0.000 A 
ATOM    123  CH2 TRP D   5       7.941 -10.204  -4.678  0.00  0.00    +0.000 A 
ATOM    124  N   GLY D   6       8.078  -4.876  -4.291  0.00  0.00    +0.000 N 
ATOM    125  H   GLY D   6       8.909  -4.838  -4.862  0.00  0.00    +0.000 HD
ATOM    126  CA  GLY D   6       6.808  -5.133  -4.925  0.00  0.00    +0.000 C 
ATOM    127  C   GLY D   6       6.919  -5.120  -6.432  0.00  0.00    +0.000 C 
ATOM    128  O   GLY D   6       7.982  -4.848  -6.993  0.00  0.00    +0.000 OA
ATOM    129  N   PRO D   7       5.817  -5.427  -7.118  0.00  0.00    +0.000 N 
ATOM    130  CA  PRO D   7       5.779  -5.248  -8.578  0.00  0.00    +0.000 C 
ATOM    131  C   PRO D   7       5.607  -3.780  -8.952  0.00  0.00    +0.000 C 
ATOM    132  O   PRO D   7       5.933  -2.894  -8.152  0.00  0.00    +0.000 OA
ATOM    133  CB  PRO D   7       4.571  -6.090  -8.995  0.00  0.00    +0.000 C 
ATOM    134  CG  PRO D   7       3.637  -5.963  -7.811  0.00  0.00    +0.000 C 
ATOM    135  CD  PRO D   7       4.546  -5.955  -6.588  0.00  0.00    +0.000 C 
ATOM    136  N   GLN D   8       5.086  -3.509 -10.149  0.00  0.00    +0.000 N 
ATOM    137  H   GLN D   8       4.785  -4.262 -10.743  0.00  0.00    +0.000 HD
ATOM    138  CA  GLN D   8       4.897  -2.134 -10.596  0.00  0.00    +0.000 C 
ATOM    139  C   GLN D   8       4.222  -1.298  -9.515  0.00  0.00    +0.000 C 
ATOM    140  O   GLN D   8       3.251  -1.725  -8.888  0.00  0.00    +0.000 OA
ATOM    141  CB  GLN D   8       4.056  -2.095 -11.879  0.00  0.00    +0.000 C 
ATOM    142  CG  GLN D   8       3.545  -0.689 -12.238  0.00  0.00    +0.000 C 
ATOM    143  CD  GLN D   8       2.108  -0.685 -12.755  0.00  0.00    +0.000 C 
ATOM    144  OE1 GLN D   8       1.677  -1.621 -13.431  0.00  0.00    +0.000 OA
ATOM    145  NE2 GLN D   8       1.356   0.369 -12.424  0.00  0.00    +0.000 N 
ATOM    146 HE21 GLN D   8       0.465   0.457 -12.870  0.00  0.00    +0.000 HD
ATOM    147 HE22 GLN D   8       1.677   0.994 -11.690  0.00  0.00    +0.000 HD
ATOM    148  N   CYS D   9       4.750  -0.099  -9.298  0.00  0.00    +0.000 N 
ATOM    149  H   CYS D   9       5.595   0.175  -9.766  0.00  0.00    +0.000 HD
ATOM    150  CA  CYS D   9       4.148   0.805  -8.329  0.00  0.00    +0.000 C 
ATOM    151  C   CYS D   9       2.744   1.204  -8.773  0.00  0.00    +0.000 C 
ATOM    152  O   CYS D   9       2.474   1.377  -9.963  0.00  0.00    +0.000 OA
ATOM    153  CB  CYS D   9       5.015   2.045  -8.144  0.00  0.00    +0.000 C 
ATOM    154  SG  CYS D   9       6.634   1.780  -7.347  0.00  0.00    +0.000 S 
ATOM    155  N   GLY D  10       1.852   1.353  -7.802  0.00  0.00    +0.000 N 
ATOM    156  H   GLY D  10       2.119   1.052  -6.863  0.00  0.00    +0.000 HD
ATOM    157  CA  GLY D  10       0.454   1.626  -8.062  0.00  0.00    +0.000 C 
ATOM    158  C   GLY D  10      -0.426   0.399  -8.070  0.00  0.00    +0.000 C 
ATOM    159  O   GLY D  10      -1.582   0.485  -8.501  0.00  0.00    +0.000 OA
ATOM    160  N   THR D  11       0.083  -0.744  -7.616  0.00  0.00    +0.000 N 
ATOM    161  H   THR D  11       0.992  -0.731  -7.155  0.00  0.00    +0.000 HD
ATOM    162  CA  THR D  11      -0.718  -1.958  -7.539  0.00  0.00    +0.000 C 
ATOM    163  C   THR D  11      -0.740  -2.474  -6.099  0.00  0.00    +0.000 C 
ATOM    164  O   THR D  11      -1.562  -2.037  -5.290  0.00  0.00    +0.000 OA
ATOM    165  CB  THR D  11      -0.176  -3.007  -8.517  0.00  0.00    +0.000 C 
ATOM    166  OG1 THR D  11       1.181  -3.335  -8.195  0.00  0.00    +0.000 OA
ATOM    167  HG1 THR D  11       1.765  -2.590  -8.390  0.00  0.00    +0.000 HD
ATOM    168  CG2 THR D  11      -0.202  -2.457  -9.949  0.00  0.00    +0.000 C 
ATOM    169  N   TYR D  12       0.172  -3.378  -5.764  0.00  0.00    +0.000 N 
ATOM    170  H   TYR D  12       0.926  -3.566  -6.415  0.00  0.00    +0.000 HD
ATOM    171  CA  TYR D  12       0.299  -3.915  -4.417  0.00  0.00    +0.000 C 
ATOM    172  C   TYR D  12       1.759  -3.853  -4.003  0.00  0.00    +0.000 C 
ATOM    173  O   TYR D  12       2.650  -3.736  -4.845  0.00  0.00    +0.000 OA
ATOM    174  CB  TYR D  12      -0.168  -5.368  -4.336  0.00  0.00    +0.000 C 
ATOM    175  CG  TYR D  12      -1.630  -5.607  -4.610  0.00  0.00    +0.000 A 
ATOM    176  CD1 TYR D  12      -2.089  -5.797  -5.903  0.00  0.00    +0.000 A 
ATOM    177  CD2 TYR D  12      -2.546  -5.680  -3.570  0.00  0.00    +0.000 A 
ATOM    178  CE1 TYR D  12      -3.427  -6.035  -6.158  0.00  0.00    +0.000 A 
ATOM    179  CE2 TYR D  12      -3.887  -5.919  -3.815  0.00  0.00    +0.000 A 
ATOM    180  CZ  TYR D  12      -4.320  -6.097  -5.112  0.00  0.00    +0.000 A 
ATOM    181  OH  TYR D  12      -5.656  -6.337  -5.363  0.00  0.00    +0.000 OA
ATOM    182  HH  TYR D  12      -6.209  -5.937  -4.695  0.00  0.00    +0.000 HD
ATOM    183  N   GLY D  13       2.005  -3.966  -2.696  0.00  0.00    +0.000 N 
ATOM    184  H   GLY D  13       1.240  -4.048  -2.046  0.00  0.00    +0.000 HD
ATOM    185  CA  GLY D  13       3.357  -3.999  -2.185  0.00  0.00    +0.000 C 
ATOM    186  C   GLY D  13       3.524  -5.080  -1.134  0.00  0.00    +0.000 C 
ATOM    187  O   GLY D  13       2.567  -5.495  -0.481  0.00  0.00    +0.000 OA
ATOM    188  N   LEU D  14       4.768  -5.526  -0.973  0.00  0.00    +0.000 N 
ATOM    189  H   LEU D  14       5.523  -5.115  -1.514  0.00  0.00    +0.000 HD
ATOM    190  CA  LEU D  14       5.118  -6.469   0.083  0.00  0.00    +0.000 C 
ATOM    191  C   LEU D  14       5.813  -5.727   1.217  0.00  0.00    +0.000 C 
ATOM    192  O   LEU D  14       6.650  -4.845   0.978  0.00  0.00    +0.000 OA
ATOM    193  CB  LEU D  14       6.033  -7.587  -0.429  0.00  0.00    +0.000 C 
ATOM    194  CG  LEU D  14       5.466  -8.637  -1.397  0.00  0.00    +0.000 C 
ATOM    195  CD1 LEU D  14       4.154  -9.215  -0.878  0.00  0.00    +0.000 C 
ATOM    196  CD2 LEU D  14       5.296  -8.056  -2.797  0.00  0.00    +0.000 C 
ATOM    197  N   TYR D  15       5.482  -6.117   2.447  0.00  0.00    +0.000 N 
ATOM    198  H   TYR D  15       4.834  -6.881   2.565  0.00  0.00    +0.000 HD
ATOM    199  CA  TYR D  15       5.955  -5.460   3.654  0.00  0.00    +0.000 C 
ATOM    200  C   TYR D  15       6.473  -6.532   4.593  0.00  0.00    +0.000 C 
ATOM    201  O   TYR D  15       5.804  -7.548   4.789  0.00  0.00    +0.000 OA
ATOM    202  CB  TYR D  15       4.827  -4.653   4.318  0.00  0.00    +0.000 C 
ATOM    203  CG  TYR D  15       4.292  -3.561   3.419  0.00  0.00    +0.000 A 
ATOM    204  CD1 TYR D  15       3.438  -3.851   2.365  0.00  0.00    +0.000 A 
ATOM    205  CD2 TYR D  15       4.666  -2.240   3.616  0.00  0.00    +0.000 A 
ATOM    206  CE1 TYR D  15       2.978  -2.849   1.523  0.00  0.00    +0.000 A 
ATOM    207  CE2 TYR D  15       4.216  -1.240   2.783  0.00  0.00    +0.000 A 
ATOM    208  CZ  TYR D  15       3.370  -1.538   1.753  0.00  0.00    +0.000 A 
ATOM    209  OH  TYR D  15       2.941  -0.508   0.944  0.00  0.00    +0.000 OA
ATOM    210  HH  TYR D  15       3.285  -0.596   0.044  0.00  0.00    +0.000 HD
ATOM    211  N   THR D  16       7.679  -6.332   5.134  0.00  0.00    +0.000 N 
ATOM    212  H   THR D  16       8.202  -5.491   4.914  0.00  0.00    +0.000 HD
ATOM    213  CA  THR D  16       8.204  -7.270   6.120  0.00  0.00    +0.000 C 
ATOM    214  C   THR D  16       7.241  -7.356   7.299  0.00  0.00    +0.000 C 
ATOM    215  O   THR D  16       6.845  -6.333   7.859  0.00  0.00    +0.000 OA
ATOM    216  CB  THR D  16       9.581  -6.824   6.608  0.00  0.00    +0.000 C 
ATOM    217  OG1 THR D  16      10.394  -6.513   5.483  0.00  0.00    +0.000 OA
ATOM    218  HG1 THR D  16      11.306  -6.453   5.793  0.00  0.00    +0.000 HD
ATOM    219  CG2 THR D  16      10.254  -7.926   7.432  0.00  0.00    +0.000 C 
ATOM    220  N   NME D  17       6.821  -8.575   7.649  0.00  0.00    +0.000 N 
ATOM    221  H   NME D  17       7.101  -9.372   7.099  0.00  0.00    +0.000 HD
ATOM    222  C   NME D  17       5.865  -8.756   8.749  0.00  0.00    +0.000 C 
TER 
