REMARK  Name = /data/user_data/xianyang/t3-aimnet-affinity-balanced/L2/O43318/pocket.pdb
REMARK                            x       y       z     vdW  Elec       q    Type
REMARK                         _______ _______ _______ _____ _____    ______ ____
ATOM      1  N   VAL A   1     -18.630 -54.863 -13.420  0.00  0.00    +0.000 N 
ATOM      2  CA  VAL A   1     -18.478 -54.366 -14.790  0.00  0.00    +0.000 C 
ATOM      3  C   VAL A   1     -17.934 -55.446 -15.732  0.00  0.00    +0.000 C 
ATOM      4  O   VAL A   1     -18.518 -55.705 -16.782  0.00  0.00    +0.000 OA
ATOM      5  CB  VAL A   1     -17.546 -53.134 -14.848  0.00  0.00    +0.000 C 
ATOM      6  CG1 VAL A   1     -17.288 -52.712 -16.296  0.00  0.00    +0.000 C 
ATOM      7  CG2 VAL A   1     -18.136 -51.989 -14.047  0.00  0.00    +0.000 C 
ATOM      8  H   VAL A   1     -19.249 -55.673 -13.419  0.00  0.00    +0.000 HD
ATOM      9  H   VAL A   1     -19.029 -54.129 -12.835  0.00  0.00    +0.000 HD
ATOM     10  H   VAL A   1     -17.717 -55.132 -13.053  0.00  0.00    +0.000 HD
TER 
REMARK  Name = /data/user_data/xianyang/t3-aimnet-affinity-balanced/L2/O43318/pocket.pdb
REMARK                            x       y       z     vdW  Elec       q    Type
REMARK                         _______ _______ _______ _____ _____    ______ ____
ATOM      1  N   VAL B   1     -13.494 -56.086 -12.043  0.00  0.00    +0.000 N 
ATOM      2  CA  VAL B   1     -13.797 -54.659 -11.950  0.00  0.00    +0.000 C 
ATOM      3  C   VAL B   1     -15.272 -54.411 -11.619  0.00  0.00    +0.000 C 
ATOM      4  O   VAL B   1     -16.159 -54.881 -12.327  0.00  0.00    +0.000 OA
ATOM      5  CB  VAL B   1     -13.444 -53.922 -13.259  0.00  0.00    +0.000 C 
ATOM      6  CG2 VAL B   1     -13.917 -52.467 -13.201  0.00  0.00    +0.000 C 
ATOM      7  CG1 VAL B   1     -11.946 -53.995 -13.533  0.00  0.00    +0.000 C 
ATOM      8  N   CYS B   2     -15.526 -53.674 -10.541  0.00  0.00    +0.000 N 
ATOM      9  CA  CYS B   2     -16.891 -53.377 -10.118  0.00  0.00    +0.000 C 
ATOM     10  C   CYS B   2     -17.124 -51.886 -10.025  0.00  0.00    +0.000 C 
ATOM     11  O   CYS B   2     -16.207 -51.127  -9.719  0.00  0.00    +0.000 OA
ATOM     12  CB  CYS B   2     -17.198 -54.014  -8.761  0.00  0.00    +0.000 C 
ATOM     13  SG  CYS B   2     -16.993 -55.792  -8.710  0.00  0.00    +0.000 S 
ATOM     14  H   VAL B   1     -12.506 -56.210 -12.264  0.00  0.00    +0.000 HD
ATOM     15  H   VAL B   1     -14.062 -56.507 -12.778  0.00  0.00    +0.000 HD
ATOM     16  H   VAL B   1     -13.702 -56.537 -11.152  0.00  0.00    +0.000 HD
ATOM     17  H   CYS B   2     -14.773 -53.320 -10.015  0.00  0.00    +0.000 HD
ATOM     18  H   CYS B   2     -17.867 -56.374  -9.574  0.00  0.00    +0.000 HD
TER 
REMARK  Name = /data/user_data/xianyang/t3-aimnet-affinity-balanced/L2/O43318/pocket.pdb
REMARK                            x       y       z     vdW  Elec       q    Type
REMARK                         _______ _______ _______ _____ _____    ______ ____
ATOM      1  N   ALA C   1     -14.701 -46.800  -9.535  0.00  0.00    +0.000 N 
ATOM      2  CA  ALA C   1     -14.583 -48.131 -10.096  0.00  0.00    +0.000 C 
ATOM      3  C   ALA C   1     -13.501 -48.855  -9.327  0.00  0.00    +0.000 C 
ATOM      4  O   ALA C   1     -12.417 -48.309  -9.115  0.00  0.00    +0.000 OA
ATOM      5  CB  ALA C   1     -14.266 -48.080 -11.577  0.00  0.00    +0.000 C 
ATOM      6  N   ILE C   2     -13.807 -50.069  -8.880  0.00  0.00    +0.000 N 
ATOM      7  CA  ILE C   2     -12.848 -50.837  -8.105  0.00  0.00    +0.000 C 
ATOM      8  C   ILE C   2     -12.420 -52.080  -8.850  0.00  0.00    +0.000 C 
ATOM      9  O   ILE C   2     -13.204 -52.681  -9.577  0.00  0.00    +0.000 OA
ATOM     10  CB  ILE C   2     -13.402 -51.239  -6.721  0.00  0.00    +0.000 C 
ATOM     11  CG1 ILE C   2     -14.594 -52.187  -6.860  0.00  0.00    +0.000 C 
ATOM     12  CG2 ILE C   2     -13.769 -50.003  -5.914  0.00  0.00    +0.000 C 
ATOM     13  CD1 ILE C   2     -15.069 -52.757  -5.547  0.00  0.00    +0.000 C 
ATOM     14  N   LYS C   3     -11.151 -52.435  -8.684  0.00  0.00    +0.000 N 
ATOM     15  CA  LYS C   3     -10.616 -53.691  -9.201  0.00  0.00    +0.000 C 
ATOM     16  C   LYS C   3     -10.121 -54.524  -8.016  0.00  0.00    +0.000 C 
ATOM     17  O   LYS C   3      -9.187 -54.128  -7.319  0.00  0.00    +0.000 OA
ATOM     18  CB  LYS C   3      -9.489 -53.439 -10.213  0.00  0.00    +0.000 C 
ATOM     19  CG  LYS C   3      -8.964 -54.696 -10.889  0.00  0.00    +0.000 C 
ATOM     20  CD  LYS C   3      -7.879 -54.387 -11.908  0.00  0.00    +0.000 C 
ATOM     21  CE  LYS C   3      -7.390 -55.671 -12.564  0.00  0.00    +0.000 C 
ATOM     22  NZ  LYS C   3      -6.363 -55.450 -13.616  0.00  0.00    +0.000 N 
ATOM     23  H   ALA C   1     -15.426 -46.284 -10.034  0.00  0.00    +0.000 HD
ATOM     24  H   ALA C   1     -13.810 -46.312  -9.628  0.00  0.00    +0.000 HD
ATOM     25  H   ALA C   1     -14.950 -46.868  -8.548  0.00  0.00    +0.000 HD
ATOM     26  H   ILE C   2     -14.693 -50.451  -9.076  0.00  0.00    +0.000 HD
ATOM     27  H   LYS C   3     -10.549 -51.829  -8.194  0.00  0.00    +0.000 HD
ATOM     28  H   LYS C   3      -5.537 -55.021 -13.200  0.00  0.00    +0.000 HD
ATOM     29  H   LYS C   3      -6.740 -54.833 -14.335  0.00  0.00    +0.000 HD
ATOM     30  H   LYS C   3      -6.107 -56.344 -14.035  0.00  0.00    +0.000 HD
TER 
REMARK  Name = /data/user_data/xianyang/t3-aimnet-affinity-balanced/L2/O43318/pocket.pdb
REMARK                            x       y       z     vdW  Elec       q    Type
REMARK                         _______ _______ _______ _____ _____    ______ ____
ATOM      1  N   GLU D   1       0.709 -53.157 -11.113  0.00  0.00    +0.000 N 
ATOM      2  CA  GLU D   1      -0.288 -52.205 -11.586  0.00  0.00    +0.000 C 
ATOM      3  C   GLU D   1      -0.480 -51.055 -10.591  0.00  0.00    +0.000 C 
ATOM      4  O   GLU D   1      -0.593 -49.890 -10.982  0.00  0.00    +0.000 OA
ATOM      5  CB  GLU D   1      -1.616 -52.924 -11.842  0.00  0.00    +0.000 C 
ATOM      6  CG  GLU D   1      -2.724 -52.050 -12.406  0.00  0.00    +0.000 C 
ATOM      7  CD  GLU D   1      -3.937 -52.858 -12.839  0.00  0.00    +0.000 C 
ATOM      8  OE2 GLU D   1      -3.924 -54.096 -12.647  0.00  0.00    +0.000 OA
ATOM      9  OE1 GLU D   1      -4.900 -52.259 -13.372  0.00  0.00    +0.000 OA
ATOM     10  H   GLU D   1       0.813 -53.908 -11.796  0.00  0.00    +0.000 HD
ATOM     11  H   GLU D   1       0.409 -53.548 -10.220  0.00  0.00    +0.000 HD
ATOM     12  H   GLU D   1       1.603 -52.681 -10.992  0.00  0.00    +0.000 HD
TER 
REMARK  Name = /data/user_data/xianyang/t3-aimnet-affinity-balanced/L2/O43318/pocket.pdb
REMARK                            x       y       z     vdW  Elec       q    Type
REMARK                         _______ _______ _______ _____ _____    ______ ____
ATOM      1  N   GLN E   1       2.525 -48.753 -10.985  0.00  0.00    +0.000 N 
ATOM      2  CA  GLN E   1       2.418 -47.956 -12.201  0.00  0.00    +0.000 C 
ATOM      3  C   GLN E   1       1.393 -46.828 -12.058  0.00  0.00    +0.000 C 
ATOM      4  O   GLN E   1       1.683 -45.671 -12.363  0.00  0.00    +0.000 OA
ATOM      5  CB  GLN E   1       2.058 -48.851 -13.387  0.00  0.00    +0.000 C 
ATOM      6  CG  GLN E   1       3.142 -49.847 -13.777  0.00  0.00    +0.000 C 
ATOM      7  CD  GLN E   1       2.616 -50.933 -14.703  0.00  0.00    +0.000 C 
ATOM      8  OE1 GLN E   1       1.415 -51.225 -14.724  0.00  0.00    +0.000 OA
ATOM      9  NE2 GLN E   1       3.510 -51.535 -15.474  0.00  0.00    +0.000 N 
ATOM     10  N   LEU E   2       0.199 -47.164 -11.582  0.00  0.00    +0.000 N 
ATOM     11  CA  LEU E   2      -0.889 -46.188 -11.486  0.00  0.00    +0.000 C 
ATOM     12  C   LEU E   2      -0.642 -45.088 -10.450  0.00  0.00    +0.000 C 
ATOM     13  O   LEU E   2      -1.172 -43.985 -10.573  0.00  0.00    +0.000 OA
ATOM     14  CB  LEU E   2      -2.203 -46.899 -11.167  0.00  0.00    +0.000 C 
ATOM     15  CG  LEU E   2      -2.800 -47.740 -12.293  0.00  0.00    +0.000 C 
ATOM     16  CD2 LEU E   2      -4.075 -48.402 -11.810  0.00  0.00    +0.000 C 
ATOM     17  CD1 LEU E   2      -3.067 -46.875 -13.512  0.00  0.00    +0.000 C 
ATOM     18  H   GLN E   1       3.216 -49.491 -11.122  0.00  0.00    +0.000 HD
ATOM     19  H   GLN E   1       1.619 -49.171 -10.771  0.00  0.00    +0.000 HD
ATOM     20  H   GLN E   1       2.815 -48.155 -10.211  0.00  0.00    +0.000 HD
ATOM     21  H   GLN E   1       3.227 -52.246 -16.093  0.00  0.00    +0.000 HD
ATOM     22  H   GLN E   1       4.457 -51.271 -15.427  0.00  0.00    +0.000 HD
ATOM     23  H   LEU E   2       0.042 -48.090 -11.287  0.00  0.00    +0.000 HD
TER 
REMARK  Name = /data/user_data/xianyang/t3-aimnet-affinity-balanced/L2/O43318/pocket.pdb
REMARK                            x       y       z     vdW  Elec       q    Type
REMARK                         _______ _______ _______ _____ _____    ______ ____
ATOM      1  N   VAL F   1       1.204 -42.322 -12.245  0.00  0.00    +0.000 N 
ATOM      2  CA  VAL F   1       0.514 -41.696 -13.365  0.00  0.00    +0.000 C 
ATOM      3  C   VAL F   1      -0.536 -40.685 -12.925  0.00  0.00    +0.000 C 
ATOM      4  O   VAL F   1      -1.463 -41.013 -12.181  0.00  0.00    +0.000 OA
ATOM      5  CB  VAL F   1      -0.161 -42.763 -14.254  0.00  0.00    +0.000 C 
ATOM      6  CG1 VAL F   1      -1.120 -42.115 -15.248  0.00  0.00    +0.000 C 
ATOM      7  CG2 VAL F   1       0.898 -43.616 -14.965  0.00  0.00    +0.000 C 
ATOM      8  H   VAL F   1       1.892 -42.987 -12.598  0.00  0.00    +0.000 HD
ATOM      9  H   VAL F   1       0.527 -42.812 -11.660  0.00  0.00    +0.000 HD
ATOM     10  H   VAL F   1       1.675 -41.606 -11.693  0.00  0.00    +0.000 HD
TER 
REMARK  Name = /data/user_data/xianyang/t3-aimnet-affinity-balanced/L2/O43318/pocket.pdb
REMARK                            x       y       z     vdW  Elec       q    Type
REMARK                         _______ _______ _______ _____ _____    ______ ____
ATOM      1  N   ILE G   1      -5.667 -40.091 -18.900  0.00  0.00    +0.000 N 
ATOM      2  CA  ILE G   1      -5.414 -41.418 -18.386  0.00  0.00    +0.000 C 
ATOM      3  C   ILE G   1      -6.263 -41.622 -17.147  0.00  0.00    +0.000 C 
ATOM      4  O   ILE G   1      -6.528 -40.681 -16.409  0.00  0.00    +0.000 OA
ATOM      5  CB  ILE G   1      -3.949 -41.629 -18.042  0.00  0.00    +0.000 C 
ATOM      6  CG1 ILE G   1      -3.061 -41.076 -19.157  0.00  0.00    +0.000 C 
ATOM      7  CG2 ILE G   1      -3.671 -43.106 -17.803  0.00  0.00    +0.000 C 
ATOM      8  CD1 ILE G   1      -1.610 -41.475 -19.009  0.00  0.00    +0.000 C 
ATOM      9  N   VAL G   2      -6.701 -42.850 -16.927  0.00  0.00    +0.000 N 
ATOM     10  CA  VAL G   2      -7.556 -43.141 -15.798  0.00  0.00    +0.000 C 
ATOM     11  C   VAL G   2      -6.810 -42.820 -14.503  0.00  0.00    +0.000 C 
ATOM     12  O   VAL G   2      -5.595 -42.997 -14.407  0.00  0.00    +0.000 OA
ATOM     13  CB  VAL G   2      -8.035 -44.617 -15.842  0.00  0.00    +0.000 C 
ATOM     14  CG1 VAL G   2      -6.856 -45.574 -15.783  0.00  0.00    +0.000 C 
ATOM     15  CG2 VAL G   2      -8.985 -44.878 -14.746  0.00  0.00    +0.000 C 
ATOM     16  N   LYS G   3      -7.534 -42.301 -13.520  0.00  0.00    +0.000 N 
ATOM     17  CA  LYS G   3      -6.912 -41.787 -12.305  0.00  0.00    +0.000 C 
ATOM     18  C   LYS G   3      -7.133 -42.700 -11.102  0.00  0.00    +0.000 C 
ATOM     19  O   LYS G   3      -8.260 -43.145 -10.837  0.00  0.00    +0.000 OA
ATOM     20  CB  LYS G   3      -7.448 -40.388 -11.996  0.00  0.00    +0.000 C 
ATOM     21  CG  LYS G   3      -6.874 -39.752 -10.739  0.00  0.00    +0.000 C 
ATOM     22  CD  LYS G   3      -7.959 -39.025  -9.948  0.00  0.00    +0.000 C 
ATOM     23  CE  LYS G   3      -8.727 -38.054 -10.829  0.00  0.00    +0.000 C 
ATOM     24  NZ  LYS G   3      -9.937 -37.519 -10.144  0.00  0.00    +0.000 N 
ATOM     25  H   ILE G   1      -5.103 -39.937 -19.736  0.00  0.00    +0.000 HD
ATOM     26  H   ILE G   1      -5.422 -39.399 -18.191  0.00  0.00    +0.000 HD
ATOM     27  H   ILE G   1      -6.655 -40.000 -19.136  0.00  0.00    +0.000 HD
ATOM     28  H   VAL G   2      -6.442 -43.576 -17.540  0.00  0.00    +0.000 HD
ATOM     29  H   LYS G   3      -8.513 -42.262 -13.613  0.00  0.00    +0.000 HD
ATOM     30  H   LYS G   3      -9.656 -37.010  -9.306  0.00  0.00    +0.000 HD
ATOM     31  H   LYS G   3     -10.550 -38.292  -9.884  0.00  0.00    +0.000 HD
ATOM     32  H   LYS G   3     -10.433 -36.889 -10.774  0.00  0.00    +0.000 HD
TER 
REMARK  Name = /data/user_data/xianyang/t3-aimnet-affinity-balanced/L2/O43318/pocket.pdb
REMARK                            x       y       z     vdW  Elec       q    Type
REMARK                         _______ _______ _______ _____ _____    ______ ____
ATOM      1  N   LEU H   1      -7.890 -51.874  -6.040  0.00  0.00    +0.000 N 
ATOM      2  CA  LEU H   1      -7.622 -50.550  -6.607  0.00  0.00    +0.000 C 
ATOM      3  C   LEU H   1      -8.895 -49.707  -6.728  0.00  0.00    +0.000 C 
ATOM      4  O   LEU H   1      -9.913 -50.163  -7.259  0.00  0.00    +0.000 OA
ATOM      5  CB  LEU H   1      -6.969 -50.678  -7.985  0.00  0.00    +0.000 C 
ATOM      6  CG  LEU H   1      -5.782 -51.627  -8.107  0.00  0.00    +0.000 C 
ATOM      7  CD1 LEU H   1      -5.361 -51.742  -9.556  0.00  0.00    +0.000 C 
ATOM      8  CD2 LEU H   1      -4.627 -51.141  -7.250  0.00  0.00    +0.000 C 
ATOM      9  H   LEU H   1      -7.018 -52.400  -5.977  0.00  0.00    +0.000 HD
ATOM     10  H   LEU H   1      -8.546 -52.374  -6.639  0.00  0.00    +0.000 HD
ATOM     11  H   LEU H   1      -8.292 -51.770  -5.108  0.00  0.00    +0.000 HD
TER 
REMARK  Name = /data/user_data/xianyang/t3-aimnet-affinity-balanced/L2/O43318/pocket.pdb
REMARK                            x       y       z     vdW  Elec       q    Type
REMARK                         _______ _______ _______ _____ _____    ______ ____
ATOM      1  N   MET I   1     -10.428 -46.449  -8.439  0.00  0.00    +0.000 N 
ATOM      2  CA  MET I   1     -10.241 -45.462  -9.491  0.00  0.00    +0.000 C 
ATOM      3  C   MET I   1     -11.371 -44.450  -9.530  0.00  0.00    +0.000 C 
ATOM      4  O   MET I   1     -12.469 -44.721  -9.041  0.00  0.00    +0.000 OA
ATOM      5  CB  MET I   1     -10.146 -46.153 -10.849  0.00  0.00    +0.000 C 
ATOM      6  CG  MET I   1      -9.284 -47.389 -10.862  0.00  0.00    +0.000 C 
ATOM      7  SD  MET I   1      -7.565 -46.993 -10.578  0.00  0.00    +0.000 S 
ATOM      8  CE  MET I   1      -7.172 -46.083 -12.062  0.00  0.00    +0.000 C 
ATOM      9  N   GLU I   2     -11.101 -43.290 -10.123  0.00  0.00    +0.000 N 
ATOM     10  CA  GLU I   2     -12.157 -42.347 -10.465  0.00  0.00    +0.000 C 
ATOM     11  C   GLU I   2     -13.030 -42.976 -11.540  0.00  0.00    +0.000 C 
ATOM     12  O   GLU I   2     -12.524 -43.424 -12.569  0.00  0.00    +0.000 OA
ATOM     13  CB  GLU I   2     -11.568 -41.023 -10.953  0.00  0.00    +0.000 C 
ATOM     14  CG  GLU I   2     -12.579 -40.075 -11.591  0.00  0.00    +0.000 C 
ATOM     15  CD  GLU I   2     -11.915 -38.890 -12.281  0.00  0.00    +0.000 C 
ATOM     16  OE1 GLU I   2     -11.143 -39.109 -13.245  0.00  0.00    +0.000 OA
ATOM     17  OE2 GLU I   2     -12.159 -37.740 -11.853  0.00  0.00    +0.000 OA
ATOM     18  N   TYR I   3     -14.337 -43.022 -11.305  0.00  0.00    +0.000 N 
ATOM     19  CA  TYR I   3     -15.233 -43.706 -12.229  0.00  0.00    +0.000 C 
ATOM     20  C   TYR I   3     -15.423 -42.956 -13.544  0.00  0.00    +0.000 C 
ATOM     21  O   TYR I   3     -15.955 -41.842 -13.575  0.00  0.00    +0.000 OA
ATOM     22  CB  TYR I   3     -16.595 -43.944 -11.580  0.00  0.00    +0.000 C 
ATOM     23  CG  TYR I   3     -17.571 -44.675 -12.474  0.00  0.00    +0.000 A 
ATOM     24  CD2 TYR I   3     -17.345 -45.992 -12.850  0.00  0.00    +0.000 A 
ATOM     25  CD1 TYR I   3     -18.727 -44.054 -12.932  0.00  0.00    +0.000 A 
ATOM     26  CE2 TYR I   3     -18.240 -46.672 -13.664  0.00  0.00    +0.000 A 
ATOM     27  CE1 TYR I   3     -19.629 -44.727 -13.749  0.00  0.00    +0.000 A 
ATOM     28  CZ  TYR I   3     -19.380 -46.033 -14.110  0.00  0.00    +0.000 A 
ATOM     29  OH  TYR I   3     -20.270 -46.701 -14.919  0.00  0.00    +0.000 OA
ATOM     30  N   ALA I   4     -14.975 -43.588 -14.626  0.00  0.00    +0.000 N 
ATOM     31  CA  ALA I   4     -15.294 -43.156 -15.980  0.00  0.00    +0.000 C 
ATOM     32  C   ALA I   4     -16.658 -43.722 -16.390  0.00  0.00    +0.000 C 
ATOM     33  O   ALA I   4     -16.850 -44.948 -16.392  0.00  0.00    +0.000 OA
ATOM     34  CB  ALA I   4     -14.221 -43.603 -16.942  0.00  0.00    +0.000 C 
ATOM     35  N   GLU I   5     -17.590 -42.838 -16.751  0.00  0.00    +0.000 N 
ATOM     36  CA  GLU I   5     -18.994 -43.224 -16.904  0.00  0.00    +0.000 C 
ATOM     37  C   GLU I   5     -19.449 -43.596 -18.318  0.00  0.00    +0.000 C 
ATOM     38  O   GLU I   5     -20.352 -44.418 -18.477  0.00  0.00    +0.000 OA
ATOM     39  CB  GLU I   5     -19.894 -42.099 -16.389  0.00  0.00    +0.000 C 
ATOM     40  CG  GLU I   5     -19.785 -40.812 -17.175  0.00  0.00    +0.000 C 
ATOM     41  CD  GLU I   5     -18.600 -39.972 -16.752  0.00  0.00    +0.000 C 
ATOM     42  OE2 GLU I   5     -17.778 -40.463 -15.941  0.00  0.00    +0.000 OA
ATOM     43  OE1 GLU I   5     -18.498 -38.819 -17.225  0.00  0.00    +0.000 OA
ATOM     44  H   MET I   1      -9.649 -47.107  -8.448  0.00  0.00    +0.000 HD
ATOM     45  H   MET I   1     -11.301 -46.953  -8.597  0.00  0.00    +0.000 HD
ATOM     46  H   MET I   1     -10.465 -45.979  -7.535  0.00  0.00    +0.000 HD
ATOM     47  H   GLU I   2     -10.167 -43.064 -10.335  0.00  0.00    +0.000 HD
ATOM     48  H   TYR I   3     -14.703 -42.590 -10.500  0.00  0.00    +0.000 HD
ATOM     49  H   TYR I   3     -21.044 -46.268 -15.222  0.00  0.00    +0.000 HD
ATOM     50  H   ALA I   4     -14.404 -44.381 -14.506  0.00  0.00    +0.000 HD
ATOM     51  H   GLU I   5     -17.327 -41.904 -16.918  0.00  0.00    +0.000 HD
TER 
REMARK  Name = /data/user_data/xianyang/t3-aimnet-affinity-balanced/L2/O43318/pocket.pdb
REMARK                            x       y       z     vdW  Elec       q    Type
REMARK                         _______ _______ _______ _____ _____    ______ ____
ATOM      1  N   LEU J   1       2.886 -41.133 -20.953  0.00  0.00    +0.000 N 
ATOM      2  CA  LEU J   1       3.430 -42.418 -20.522  0.00  0.00    +0.000 C 
ATOM      3  C   LEU J   1       4.843 -42.622 -21.072  0.00  0.00    +0.000 C 
ATOM      4  O   LEU J   1       5.702 -43.191 -20.403  0.00  0.00    +0.000 OA
ATOM      5  CB  LEU J   1       2.530 -43.585 -20.959  0.00  0.00    +0.000 C 
ATOM      6  CG  LEU J   1       1.130 -43.778 -20.368  0.00  0.00    +0.000 C 
ATOM      7  CD1 LEU J   1       0.441 -44.906 -21.097  0.00  0.00    +0.000 C 
ATOM      8  CD2 LEU J   1       1.181 -44.082 -18.885  0.00  0.00    +0.000 C 
ATOM      9  H   LEU J   1       3.505 -40.382 -20.648  0.00  0.00    +0.000 HD
ATOM     10  H   LEU J   1       1.962 -41.000 -20.542  0.00  0.00    +0.000 HD
ATOM     11  H   LEU J   1       2.811 -41.120 -21.970  0.00  0.00    +0.000 HD
TER 
REMARK  Name = /data/user_data/xianyang/t3-aimnet-affinity-balanced/L2/O43318/pocket.pdb
REMARK                            x       y       z     vdW  Elec       q    Type
REMARK                         _______ _______ _______ _____ _____    ______ ____
ATOM      1  N   LEU K   1       6.874 -45.660 -19.509  0.00  0.00    +0.000 N 
ATOM      2  CA  LEU K   1       5.857 -46.706 -19.582  0.00  0.00    +0.000 C 
ATOM      3  C   LEU K   1       5.347 -46.851 -21.008  0.00  0.00    +0.000 C 
ATOM      4  O   LEU K   1       5.024 -45.860 -21.673  0.00  0.00    +0.000 OA
ATOM      5  CB  LEU K   1       4.691 -46.411 -18.642  0.00  0.00    +0.000 C 
ATOM      6  CG  LEU K   1       4.990 -46.585 -17.156  0.00  0.00    +0.000 C 
ATOM      7  CD2 LEU K   1       3.736 -46.398 -16.325  0.00  0.00    +0.000 C 
ATOM      8  CD1 LEU K   1       5.601 -47.954 -16.913  0.00  0.00    +0.000 C 
ATOM      9  N   ILE K   2       5.304 -48.090 -21.478  0.00  0.00    +0.000 N 
ATOM     10  CA  ILE K   2       4.721 -48.395 -22.775  0.00  0.00    +0.000 C 
ATOM     11  C   ILE K   2       3.343 -49.012 -22.535  0.00  0.00    +0.000 C 
ATOM     12  O   ILE K   2       3.162 -49.765 -21.572  0.00  0.00    +0.000 OA
ATOM     13  CB  ILE K   2       5.615 -49.353 -23.577  0.00  0.00    +0.000 C 
ATOM     14  CG1 ILE K   2       6.982 -48.723 -23.806  0.00  0.00    +0.000 C 
ATOM     15  CG2 ILE K   2       4.990 -49.719 -24.909  0.00  0.00    +0.000 C 
ATOM     16  CD1 ILE K   2       7.960 -49.657 -24.514  0.00  0.00    +0.000 C 
ATOM     17  N   HIS K   3       2.367 -48.685 -23.380  0.00  0.00    +0.000 N 
ATOM     18  CA  HIS K   3       1.021 -49.221 -23.182  0.00  0.00    +0.000 C 
ATOM     19  C   HIS K   3       0.967 -50.648 -23.694  0.00  0.00    +0.000 C 
ATOM     20  O   HIS K   3       0.659 -51.567 -22.936  0.00  0.00    +0.000 OA
ATOM     21  CB  HIS K   3      -0.051 -48.361 -23.874  0.00  0.00    +0.000 C 
ATOM     22  CG  HIS K   3      -1.447 -48.719 -23.465  0.00  0.00    +0.000 C 
ATOM     23  ND1 HIS K   3      -2.088 -49.857 -23.913  0.00  0.00    +0.000 NA
ATOM     24  CD2 HIS K   3      -2.305 -48.121 -22.605  0.00  0.00    +0.000 C 
ATOM     25  CE1 HIS K   3      -3.289 -49.931 -23.361  0.00  0.00    +0.000 C 
ATOM     26  NE2 HIS K   3      -3.441 -48.894 -22.562  0.00  0.00    +0.000 NA
ATOM     27  N   ARG K   4       1.271 -50.805 -24.985  0.00  0.00    +0.000 N 
ATOM     28  CA  ARG K   4       1.409 -52.098 -25.679  0.00  0.00    +0.000 C 
ATOM     29  C   ARG K   4       0.087 -52.751 -26.085  0.00  0.00    +0.000 C 
ATOM     30  O   ARG K   4       0.080 -53.734 -26.827  0.00  0.00    +0.000 OA
ATOM     31  CB  ARG K   4       2.223 -53.081 -24.834  0.00  0.00    +0.000 C 
ATOM     32  CG  ARG K   4       3.521 -53.528 -25.484  0.00  0.00    +0.000 C 
ATOM     33  CD  ARG K   4       3.259 -54.322 -26.748  0.00  0.00    +0.000 C 
ATOM     34  NE  ARG K   4       2.584 -55.581 -26.447  0.00  0.00    +0.000 N 
ATOM     35  CZ  ARG K   4       3.209 -56.686 -26.060  0.00  0.00    +0.000 C 
ATOM     36  NH1 ARG K   4       4.527 -56.685 -25.931  0.00  0.00    +0.000 N 
ATOM     37  NH2 ARG K   4       2.516 -57.786 -25.800  0.00  0.00    +0.000 N 
ATOM     38  H   LEU K   1       7.638 -45.884 -20.146  0.00  0.00    +0.000 HD
ATOM     39  H   LEU K   1       7.232 -45.600 -18.556  0.00  0.00    +0.000 HD
ATOM     40  H   LEU K   1       6.461 -44.766 -19.774  0.00  0.00    +0.000 HD
ATOM     41  H   ILE K   2       5.676 -48.822 -20.935  0.00  0.00    +0.000 HD
ATOM     42  H   HIS K   3       2.551 -48.083 -24.137  0.00  0.00    +0.000 HD
ATOM     43  H   ARG K   4       1.415 -49.989 -25.517  0.00  0.00    +0.000 HD
ATOM     44  H   ARG K   4       1.604 -55.612 -26.537  0.00  0.00    +0.000 HD
ATOM     45  H   ARG K   4       5.040 -55.867 -26.125  0.00  0.00    +0.000 HD
ATOM     46  H   ARG K   4       4.994 -57.502 -25.642  0.00  0.00    +0.000 HD
ATOM     47  H   ARG K   4       1.536 -57.785 -25.896  0.00  0.00    +0.000 HD
ATOM     48  H   ARG K   4       2.981 -58.604 -25.510  0.00  0.00    +0.000 HD
TER 
REMARK  Name = /data/user_data/xianyang/t3-aimnet-affinity-balanced/L2/O43318/pocket.pdb
REMARK                            x       y       z     vdW  Elec       q    Type
REMARK                         _______ _______ _______ _____ _____    ______ ____
ATOM      1  N   LEU L   1     -11.559 -45.242 -22.709  0.00  0.00    +0.000 N 
ATOM      2  CA  LEU L   1     -12.820 -44.838 -22.097  0.00  0.00    +0.000 C 
ATOM      3  C   LEU L   1     -13.190 -43.407 -22.465  0.00  0.00    +0.000 C 
ATOM      4  O   LEU L   1     -12.318 -42.551 -22.627  0.00  0.00    +0.000 OA
ATOM      5  CB  LEU L   1     -12.760 -44.985 -20.576  0.00  0.00    +0.000 C 
ATOM      6  CG  LEU L   1     -12.494 -46.391 -20.034  0.00  0.00    +0.000 C 
ATOM      7  CD2 LEU L   1     -12.517 -46.356 -18.524  0.00  0.00    +0.000 C 
ATOM      8  CD1 LEU L   1     -13.494 -47.417 -20.564  0.00  0.00    +0.000 C 
ATOM      9  H   LEU L   1     -11.623 -45.136 -23.721  0.00  0.00    +0.000 HD
ATOM     10  H   LEU L   1     -11.368 -46.218 -22.481  0.00  0.00    +0.000 HD
ATOM     11  H   LEU L   1     -10.805 -44.655 -22.352  0.00  0.00    +0.000 HD
TER 
REMARK  Name = /data/user_data/xianyang/t3-aimnet-affinity-balanced/L2/O43318/pocket.pdb
REMARK                            x       y       z     vdW  Elec       q    Type
REMARK                         _______ _______ _______ _____ _____    ______ ____
ATOM      1  N   ILE M   1      -7.377 -43.122 -21.268  0.00  0.00    +0.000 N 
ATOM      2  CA  ILE M   1      -6.677 -44.370 -21.520  0.00  0.00    +0.000 C 
ATOM      3  C   ILE M   1      -6.711 -45.271 -20.297  0.00  0.00    +0.000 C 
ATOM      4  O   ILE M   1      -6.529 -44.820 -19.168  0.00  0.00    +0.000 OA
ATOM      5  CB  ILE M   1      -5.225 -44.108 -21.909  0.00  0.00    +0.000 C 
ATOM      6  CG1 ILE M   1      -5.176 -43.269 -23.177  0.00  0.00    +0.000 C 
ATOM      7  CG2 ILE M   1      -4.457 -45.406 -22.107  0.00  0.00    +0.000 C 
ATOM      8  CD1 ILE M   1      -3.781 -42.810 -23.506  0.00  0.00    +0.000 C 
ATOM      9  N   CYS M   2      -6.930 -46.554 -20.524  0.00  0.00    +0.000 N 
ATOM     10  CA  CYS M   2      -6.837 -47.521 -19.446  0.00  0.00    +0.000 C 
ATOM     11  C   CYS M   2      -6.292 -48.862 -19.969  0.00  0.00    +0.000 C 
ATOM     12  O   CYS M   2      -5.954 -48.984 -21.143  0.00  0.00    +0.000 OA
ATOM     13  CB  CYS M   2      -8.206 -47.696 -18.806  0.00  0.00    +0.000 C 
ATOM     14  SG  CYS M   2      -9.364 -48.439 -19.923  0.00  0.00    +0.000 S 
ATOM     15  N   ASP M   3      -6.199 -49.869 -19.111  0.00  0.00    +0.000 N 
ATOM     16  CA  ASP M   3      -5.754 -51.178 -19.570  0.00  0.00    +0.000 C 
ATOM     17  C   ASP M   3      -6.392 -52.270 -18.726  0.00  0.00    +0.000 C 
ATOM     18  O   ASP M   3      -6.068 -52.431 -17.551  0.00  0.00    +0.000 OA
ATOM     19  CB  ASP M   3      -4.223 -51.276 -19.525  0.00  0.00    +0.000 C 
ATOM     20  CG  ASP M   3      -3.701 -52.625 -20.011  0.00  0.00    +0.000 C 
ATOM     21  OD1 ASP M   3      -4.449 -53.374 -20.678  0.00  0.00    +0.000 OA
ATOM     22  OD2 ASP M   3      -2.527 -52.937 -19.730  0.00  0.00    +0.000 OA
ATOM     23  N   PHE M   4      -7.309 -53.015 -19.329  0.00  0.00    +0.000 N 
ATOM     24  CA  PHE M   4      -7.994 -54.080 -18.614  0.00  0.00    +0.000 C 
ATOM     25  C   PHE M   4      -7.213 -55.391 -18.708  0.00  0.00    +0.000 C 
ATOM     26  O   PHE M   4      -7.546 -56.358 -18.033  0.00  0.00    +0.000 OA
ATOM     27  CB  PHE M   4      -9.414 -54.268 -19.155  0.00  0.00    +0.000 C 
ATOM     28  CG  PHE M   4     -10.257 -53.018 -19.108  0.00  0.00    +0.000 A 
ATOM     29  CD2 PHE M   4     -10.720 -52.518 -17.898  0.00  0.00    +0.000 A 
ATOM     30  CD1 PHE M   4     -10.600 -52.351 -20.276  0.00  0.00    +0.000 A 
ATOM     31  CE2 PHE M   4     -11.504 -51.359 -17.854  0.00  0.00    +0.000 A 
ATOM     32  CE1 PHE M   4     -11.383 -51.198 -20.241  0.00  0.00    +0.000 A 
ATOM     33  CZ  PHE M   4     -11.835 -50.699 -19.027  0.00  0.00    +0.000 A 
ATOM     34  H   ILE M   1      -7.340 -42.537 -22.102  0.00  0.00    +0.000 HD
ATOM     35  H   ILE M   1      -6.933 -42.634 -20.490  0.00  0.00    +0.000 HD
ATOM     36  H   ILE M   1      -8.350 -43.319 -21.034  0.00  0.00    +0.000 HD
ATOM     37  H   CYS M   2      -7.158 -46.857 -21.433  0.00  0.00    +0.000 HD
ATOM     38  H   CYS M   2      -8.921 -49.674 -20.280  0.00  0.00    +0.000 HD
ATOM     39  H   ASP M   3      -6.431 -49.732 -18.164  0.00  0.00    +0.000 HD
ATOM     40  H   PHE M   4      -7.529 -52.845 -20.273  0.00  0.00    +0.000 HD
TER 
REMARK  Name = /data/user_data/xianyang/t3-aimnet-affinity-balanced/L2/O43318/pocket.pdb
REMARK                            x       y       z     vdW  Elec       q    Type
REMARK                         _______ _______ _______ _____ _____    ______ ____
ATOM      1  N   TYR N   1      10.967 -54.858 -29.095  0.00  0.00    +0.000 N 
ATOM      2  CA  TYR N   1      10.147 -53.696 -29.438  0.00  0.00    +0.000 C 
ATOM      3  C   TYR N   1      10.382 -52.469 -28.539  0.00  0.00    +0.000 C 
ATOM      4  O   TYR N   1      11.066 -52.547 -27.515  0.00  0.00    +0.000 OA
ATOM      5  CB  TYR N   1       8.669 -54.087 -29.402  0.00  0.00    +0.000 C 
ATOM      6  CG  TYR N   1       8.138 -54.392 -28.020  0.00  0.00    +0.000 A 
ATOM      7  CD2 TYR N   1       7.680 -53.372 -27.191  0.00  0.00    +0.000 A 
ATOM      8  CD1 TYR N   1       8.073 -55.697 -27.551  0.00  0.00    +0.000 A 
ATOM      9  CE2 TYR N   1       7.187 -53.637 -25.934  0.00  0.00    +0.000 A 
ATOM     10  CE1 TYR N   1       7.575 -55.975 -26.287  0.00  0.00    +0.000 A 
ATOM     11  CZ  TYR N   1       7.133 -54.937 -25.484  0.00  0.00    +0.000 A 
ATOM     12  OH  TYR N   1       6.636 -55.187 -24.223  0.00  0.00    +0.000 OA
ATOM     13  H   TYR N   1      10.754 -55.625 -29.733  0.00  0.00    +0.000 HD
ATOM     14  H   TYR N   1      10.765 -55.146 -28.138  0.00  0.00    +0.000 HD
ATOM     15  H   TYR N   1      11.954 -54.613 -29.175  0.00  0.00    +0.000 HD
ATOM     16  H   TYR N   1       6.593 -56.066 -23.902  0.00  0.00    +0.000 HD
TER 
