REMARK  Name = /data/user_data/xianyang/t3-aimnet-affinity-balanced/L3/P11926/pocket.pdb
REMARK                            x       y       z     vdW  Elec       q    Type
REMARK                         _______ _______ _______ _____ _____    ______ ____
ATOM      1  N   CYS A   1     -46.183  -1.605 -39.529  0.00  0.00    +0.000 N 
ATOM      2  CA  CYS A   1     -46.720  -1.583 -40.891  0.00  0.00    +0.000 C 
ATOM      3  C   CYS A   1     -46.048  -0.556 -41.823  0.00  0.00    +0.000 C 
ATOM      4  O   CYS A   1     -46.103  -0.682 -43.054  0.00  0.00    +0.000 OA
ATOM      5  CB  CYS A   1     -48.205  -1.208 -40.789  0.00  0.00    +0.000 C 
ATOM      6  SG  CYS A   1     -48.445   0.444 -40.022  0.00  0.00    +0.000 S 
ATOM      7  N   ASP A   2     -45.402   0.441 -41.230  0.00  0.00    +0.000 N 
ATOM      8  CA  ASP A   2     -45.003   1.648 -41.941  0.00  0.00    +0.000 C 
ATOM      9  C   ASP A   2     -43.642   1.537 -42.626  0.00  0.00    +0.000 C 
ATOM     10  O   ASP A   2     -42.649   1.154 -42.014  0.00  0.00    +0.000 OA
ATOM     11  CB  ASP A   2     -45.025   2.819 -40.937  0.00  0.00    +0.000 C 
ATOM     12  CG  ASP A   2     -45.058   4.190 -41.602  0.00  0.00    +0.000 C 
ATOM     13  OD1 ASP A   2     -44.850   4.298 -42.827  0.00  0.00    +0.000 OA
ATOM     14  OD2 ASP A   2     -45.271   5.179 -40.865  0.00  0.00    +0.000 OA
ATOM     15  H   CYS A   1     -45.194  -1.852 -39.558  0.00  0.00    +0.000 HD
ATOM     16  H   CYS A   1     -46.690  -2.295 -38.975  0.00  0.00    +0.000 HD
ATOM     17  H   CYS A   1     -46.292  -0.683 -39.106  0.00  0.00    +0.000 HD
ATOM     18  H   CYS A   1     -47.943   0.434 -38.758  0.00  0.00    +0.000 HD
ATOM     19  H   ASP A   2     -45.184   0.361 -40.273  0.00  0.00    +0.000 HD
TER 
REMARK  Name = /data/user_data/xianyang/t3-aimnet-affinity-balanced/L3/P11926/pocket.pdb
REMARK                            x       y       z     vdW  Elec       q    Type
REMARK                         _______ _______ _______ _____ _____    ______ ____
ATOM      1  N   ALA B   1     -58.696  -1.472 -39.909  0.00  0.00    +0.000 N 
ATOM      2  CA  ALA B   1     -57.291  -1.471 -39.495  0.00  0.00    +0.000 C 
ATOM      3  C   ALA B   1     -57.151  -0.822 -38.113  0.00  0.00    +0.000 C 
ATOM      4  O   ALA B   1     -57.029   0.392 -37.983  0.00  0.00    +0.000 OA
ATOM      5  CB  ALA B   1     -56.415  -0.784 -40.538  0.00  0.00    +0.000 C 
ATOM      6  H   ALA B   1     -58.779  -1.905 -40.829  0.00  0.00    +0.000 HD
ATOM      7  H   ALA B   1     -59.038  -0.512 -39.953  0.00  0.00    +0.000 HD
ATOM      8  H   ALA B   1     -59.249  -1.999 -39.233  0.00  0.00    +0.000 HD
TER 
REMARK  Name = /data/user_data/xianyang/t3-aimnet-affinity-balanced/L3/P11926/pocket.pdb
REMARK                            x       y       z     vdW  Elec       q    Type
REMARK                         _______ _______ _______ _____ _____    ______ ____
ATOM      1  N   LYS C   1     -54.849  -0.465 -35.969  0.00  0.00    +0.000 N 
ATOM      2  CA  LYS C   1     -53.668   0.386 -35.748  0.00  0.00    +0.000 C 
ATOM      3  C   LYS C   1     -53.910   1.872 -36.011  0.00  0.00    +0.000 C 
ATOM      4  O   LYS C   1     -53.266   2.704 -35.387  0.00  0.00    +0.000 OA
ATOM      5  CB  LYS C   1     -52.474  -0.094 -36.586  0.00  0.00    +0.000 C 
ATOM      6  CG  LYS C   1     -52.645   0.001 -38.120  0.00  0.00    +0.000 C 
ATOM      7  CD  LYS C   1     -51.557  -0.803 -38.809  0.00  0.00    +0.000 C 
ATOM      8  CE  LYS C   1     -52.027  -1.405 -40.120  0.00  0.00    +0.000 C 
ATOM      9  NZ  LYS C   1     -52.751  -2.708 -39.903  0.00  0.00    +0.000 N 
ATOM     10  N   CYS C   2     -54.833   2.189 -36.928  0.00  0.00    +0.000 N 
ATOM     11  CA  CYS C   2     -55.103   3.570 -37.312  0.00  0.00    +0.000 C 
ATOM     12  C   CYS C   2     -55.596   4.399 -36.122  0.00  0.00    +0.000 C 
ATOM     13  O   CYS C   2     -55.215   5.563 -35.947  0.00  0.00    +0.000 OA
ATOM     14  CB  CYS C   2     -56.113   3.612 -38.456  0.00  0.00    +0.000 C 
ATOM     15  SG  CYS C   2     -56.552   5.263 -39.028  0.00  0.00    +0.000 S 
ATOM     16  H   LYS C   1     -54.609  -1.437 -35.774  0.00  0.00    +0.000 HD
ATOM     17  H   LYS C   1     -55.154  -0.378 -36.938  0.00  0.00    +0.000 HD
ATOM     18  H   LYS C   1     -55.602  -0.169 -35.348  0.00  0.00    +0.000 HD
ATOM     19  H   LYS C   1     -53.575  -2.547 -39.324  0.00  0.00    +0.000 HD
ATOM     20  H   LYS C   1     -52.130  -3.368 -39.434  0.00  0.00    +0.000 HD
ATOM     21  H   LYS C   1     -53.037  -3.092 -40.804  0.00  0.00    +0.000 HD
ATOM     22  H   CYS C   2     -55.346   1.466 -37.357  0.00  0.00    +0.000 HD
ATOM     23  H   CYS C   2     -55.448   5.877 -39.531  0.00  0.00    +0.000 HD
TER 
REMARK  Name = /data/user_data/xianyang/t3-aimnet-affinity-balanced/L3/P11926/pocket.pdb
REMARK                            x       y       z     vdW  Elec       q    Type
REMARK                         _______ _______ _______ _____ _____    ______ ____
ATOM      1  N   ASP D   1     -58.441  -5.914 -38.997  0.00  0.00    +0.000 N 
ATOM      2  CA  ASP D   1     -57.064  -6.117 -39.397  0.00  0.00    +0.000 C 
ATOM      3  C   ASP D   1     -56.226  -5.789 -38.157  0.00  0.00    +0.000 C 
ATOM      4  O   ASP D   1     -56.166  -4.627 -37.723  0.00  0.00    +0.000 OA
ATOM      5  CB  ASP D   1     -56.726  -5.170 -40.576  0.00  0.00    +0.000 C 
ATOM      6  CG  ASP D   1     -55.223  -4.902 -40.727  0.00  0.00    +0.000 C 
ATOM      7  OD2 ASP D   1     -54.405  -5.635 -40.147  0.00  0.00    +0.000 OA
ATOM      8  OD1 ASP D   1     -54.854  -3.933 -41.420  0.00  0.00    +0.000 OA
ATOM      9  H   ASP D   1     -59.057  -6.117 -39.784  0.00  0.00    +0.000 HD
ATOM     10  H   ASP D   1     -58.571  -4.945 -38.705  0.00  0.00    +0.000 HD
ATOM     11  H   ASP D   1     -58.665  -6.536 -38.220  0.00  0.00    +0.000 HD
TER 
REMARK  Name = /data/user_data/xianyang/t3-aimnet-affinity-balanced/L3/P11926/pocket.pdb
REMARK                            x       y       z     vdW  Elec       q    Type
REMARK                         _______ _______ _______ _____ _____    ______ ____
ATOM      1  N   ALA E   1     -52.770  -9.139 -40.385  0.00  0.00    +0.000 N 
ATOM      2  CA  ALA E   1     -52.216  -8.649 -41.655  0.00  0.00    +0.000 C 
ATOM      3  C   ALA E   1     -50.862  -7.948 -41.488  0.00  0.00    +0.000 C 
ATOM      4  O   ALA E   1     -50.595  -6.901 -42.077  0.00  0.00    +0.000 OA
ATOM      5  CB  ALA E   1     -53.236  -7.752 -42.369  0.00  0.00    +0.000 C 
ATOM      6  H   ALA E   1     -53.667  -9.594 -40.558  0.00  0.00    +0.000 HD
ATOM      7  H   ALA E   1     -52.904  -8.354 -39.747  0.00  0.00    +0.000 HD
ATOM      8  H   ALA E   1     -52.124  -9.809 -39.968  0.00  0.00    +0.000 HD
TER 
REMARK  Name = /data/user_data/xianyang/t3-aimnet-affinity-balanced/L3/P11926/pocket.pdb
REMARK                            x       y       z     vdW  Elec       q    Type
REMARK                         _______ _______ _______ _____ _____    ______ ____
ATOM      1  N   PRO F   1     -47.086  -8.819 -42.305  0.00  0.00    +0.000 N 
ATOM      2  CA  PRO F   1     -46.311  -9.841 -43.038  0.00  0.00    +0.000 C 
ATOM      3  C   PRO F   1     -45.062 -10.375 -42.326  0.00  0.00    +0.000 C 
ATOM      4  O   PRO F   1     -44.531 -11.404 -42.736  0.00  0.00    +0.000 OA
ATOM      5  CB  PRO F   1     -45.880  -9.111 -44.329  0.00  0.00    +0.000 C 
ATOM      6  CG  PRO F   1     -46.736  -7.870 -44.387  0.00  0.00    +0.000 C 
ATOM      7  CD  PRO F   1     -46.987  -7.498 -42.955  0.00  0.00    +0.000 C 
ATOM      8  H   PRO F   1     -46.725  -8.748 -41.354  0.00  0.00    +0.000 HD
ATOM      9  H   PRO F   1     -48.066  -9.102 -42.301  0.00  0.00    +0.000 HD
TER 
REMARK  Name = /data/user_data/xianyang/t3-aimnet-affinity-balanced/L3/P11926/pocket.pdb
REMARK                            x       y       z     vdW  Elec       q    Type
REMARK                         _______ _______ _______ _____ _____    ______ ____
ATOM      1  N   ARG G   1     -48.981 -11.332 -49.674  0.00  0.00    +0.000 N 
ATOM      2  CA  ARG G   1     -48.987  -9.891 -49.921  0.00  0.00    +0.000 C 
ATOM      3  C   ARG G   1     -48.059  -9.514 -51.067  0.00  0.00    +0.000 C 
ATOM      4  O   ARG G   1     -46.858  -9.804 -51.012  0.00  0.00    +0.000 OA
ATOM      5  CB  ARG G   1     -48.577  -9.119 -48.671  0.00  0.00    +0.000 C 
ATOM      6  CG  ARG G   1     -48.422  -7.620 -48.946  0.00  0.00    +0.000 C 
ATOM      7  CD  ARG G   1     -48.810  -6.802 -47.750  0.00  0.00    +0.000 C 
ATOM      8  NE  ARG G   1     -48.550  -5.365 -47.912  0.00  0.00    +0.000 N 
ATOM      9  CZ  ARG G   1     -48.326  -4.539 -46.888  0.00  0.00    +0.000 C 
ATOM     10  NH2 ARG G   1     -48.333  -5.005 -45.637  0.00  0.00    +0.000 N 
ATOM     11  NH1 ARG G   1     -48.086  -3.255 -47.100  0.00  0.00    +0.000 N 
ATOM     12  H   ARG G   1     -49.258 -11.824 -50.524  0.00  0.00    +0.000 HD
ATOM     13  H   ARG G   1     -49.637 -11.551 -48.925  0.00  0.00    +0.000 HD
ATOM     14  H   ARG G   1     -48.043 -11.626 -49.401  0.00  0.00    +0.000 HD
ATOM     15  H   ARG G   1     -48.541  -4.992 -48.823  0.00  0.00    +0.000 HD
ATOM     16  H   ARG G   1     -48.510  -5.958 -45.468  0.00  0.00    +0.000 HD
ATOM     17  H   ARG G   1     -48.161  -4.395 -44.884  0.00  0.00    +0.000 HD
ATOM     18  H   ARG G   1     -48.078  -2.901 -48.019  0.00  0.00    +0.000 HD
ATOM     19  H   ARG G   1     -47.915  -2.654 -46.339  0.00  0.00    +0.000 HD
TER 
REMARK  Name = /data/user_data/xianyang/t3-aimnet-affinity-balanced/L3/P11926/pocket.pdb
REMARK                            x       y       z     vdW  Elec       q    Type
REMARK                         _______ _______ _______ _____ _____    ______ ____
ATOM      1  N   LEU H   1     -45.368   2.134 -48.714  0.00  0.00    +0.000 N 
ATOM      2  CA  LEU H   1     -45.210   0.890 -47.937  0.00  0.00    +0.000 C 
ATOM      3  C   LEU H   1     -44.470  -0.220 -48.689  0.00  0.00    +0.000 C 
ATOM      4  O   LEU H   1     -43.957  -1.152 -48.059  0.00  0.00    +0.000 OA
ATOM      5  CB  LEU H   1     -46.577   0.346 -47.487  0.00  0.00    +0.000 C 
ATOM      6  CG  LEU H   1     -47.569   1.290 -46.796  0.00  0.00    +0.000 C 
ATOM      7  CD1 LEU H   1     -48.951   0.650 -46.686  0.00  0.00    +0.000 C 
ATOM      8  CD2 LEU H   1     -47.051   1.714 -45.410  0.00  0.00    +0.000 C 
ATOM      9  H   LEU H   1     -44.450   2.475 -49.001  0.00  0.00    +0.000 HD
ATOM     10  H   LEU H   1     -45.828   2.839 -48.138  0.00  0.00    +0.000 HD
ATOM     11  H   LEU H   1     -45.935   1.949 -49.541  0.00  0.00    +0.000 HD
TER 
REMARK  Name = /data/user_data/xianyang/t3-aimnet-affinity-balanced/L3/P11926/pocket.pdb
REMARK                            x       y       z     vdW  Elec       q    Type
REMARK                         _______ _______ _______ _____ _____    ______ ____
ATOM      1  N   HIS I   1     -51.449  -3.408 -50.627  0.00  0.00    +0.000 N 
ATOM      2  CA  HIS I   1     -51.793  -2.100 -50.121  0.00  0.00    +0.000 C 
ATOM      3  C   HIS I   1     -51.202  -1.069 -51.048  0.00  0.00    +0.000 C 
ATOM      4  O   HIS I   1     -49.994  -1.063 -51.282  0.00  0.00    +0.000 OA
ATOM      5  CB  HIS I   1     -51.301  -1.902 -48.678  0.00  0.00    +0.000 C 
ATOM      6  CG  HIS I   1     -51.962  -0.752 -47.981  0.00  0.00    +0.000 C 
ATOM      7  ND1 HIS I   1     -51.962   0.530 -48.490  0.00  0.00    +0.000 NA
ATOM      8  CD2 HIS I   1     -52.669  -0.696 -46.833  0.00  0.00    +0.000 C 
ATOM      9  CE1 HIS I   1     -52.612   1.331 -47.666  0.00  0.00    +0.000 C 
ATOM     10  NE2 HIS I   1     -53.041   0.611 -46.645  0.00  0.00    +0.000 NA
ATOM     11  H   HIS I   1     -51.790  -3.503 -51.584  0.00  0.00    +0.000 HD
ATOM     12  H   HIS I   1     -51.878  -4.123 -50.040  0.00  0.00    +0.000 HD
ATOM     13  H   HIS I   1     -50.435  -3.522 -50.615  0.00  0.00    +0.000 HD
TER 
REMARK  Name = /data/user_data/xianyang/t3-aimnet-affinity-balanced/L3/P11926/pocket.pdb
REMARK                            x       y       z     vdW  Elec       q    Type
REMARK                         _______ _______ _______ _____ _____    ______ ____
ATOM      1  N   GLY J   1     -50.708   1.940 -50.718  0.00  0.00    +0.000 N 
ATOM      2  CA  GLY J   1     -50.075   3.049 -50.027  0.00  0.00    +0.000 C 
ATOM      3  C   GLY J   1     -51.134   3.824 -49.280  0.00  0.00    +0.000 C 
ATOM      4  O   GLY J   1     -52.246   4.003 -49.775  0.00  0.00    +0.000 OA
ATOM      5  N   SER J   2     -50.808   4.277 -48.073  0.00  0.00    +0.000 N 
ATOM      6  CA  SER J   2     -51.759   5.108 -47.342  0.00  0.00    +0.000 C 
ATOM      7  C   SER J   2     -51.822   6.487 -48.006  0.00  0.00    +0.000 C 
ATOM      8  O   SER J   2     -50.803   7.011 -48.470  0.00  0.00    +0.000 OA
ATOM      9  CB  SER J   2     -51.405   5.203 -45.851  0.00  0.00    +0.000 C 
ATOM     10  OG  SER J   2     -52.547   5.584 -45.099  0.00  0.00    +0.000 OA
ATOM     11  N   GLY J   3     -53.022   7.060 -48.070  0.00  0.00    +0.000 N 
ATOM     12  CA  GLY J   3     -53.216   8.318 -48.787  0.00  0.00    +0.000 C 
ATOM     13  C   GLY J   3     -52.975   8.157 -50.283  0.00  0.00    +0.000 C 
ATOM     14  O   GLY J   3     -52.133   8.843 -50.877  0.00  0.00    +0.000 OA
ATOM     15  H   GLY J   1     -50.001   1.409 -51.227  0.00  0.00    +0.000 HD
ATOM     16  H   GLY J   1     -51.401   2.299 -51.374  0.00  0.00    +0.000 HD
ATOM     17  H   GLY J   1     -51.166   1.333 -50.038  0.00  0.00    +0.000 HD
ATOM     18  H   SER J   2     -49.935   4.054 -47.677  0.00  0.00    +0.000 HD
ATOM     19  H   SER J   2     -52.859   6.451 -45.402  0.00  0.00    +0.000 HD
ATOM     20  H   GLY J   3     -53.789   6.630 -47.628  0.00  0.00    +0.000 HD
TER 
REMARK  Name = /data/user_data/xianyang/t3-aimnet-affinity-balanced/L3/P11926/pocket.pdb
REMARK                            x       y       z     vdW  Elec       q    Type
REMARK                         _______ _______ _______ _____ _____    ______ ____
ATOM      1  N   GLY K   1     -56.622  -4.152 -49.280  0.00  0.00    +0.000 N 
ATOM      2  CA  GLY K   1     -55.898  -3.250 -48.367  0.00  0.00    +0.000 C 
ATOM      3  C   GLY K   1     -56.608  -1.951 -48.041  0.00  0.00    +0.000 C 
ATOM      4  O   GLY K   1     -57.840  -1.901 -48.001  0.00  0.00    +0.000 OA
ATOM      5  N   GLY K   2     -55.831  -0.887 -47.840  0.00  0.00    +0.000 N 
ATOM      6  CA  GLY K   2     -56.395   0.411 -47.463  0.00  0.00    +0.000 C 
ATOM      7  C   GLY K   2     -56.012   1.509 -48.434  0.00  0.00    +0.000 C 
ATOM      8  O   GLY K   2     -55.867   1.266 -49.637  0.00  0.00    +0.000 OA
ATOM      9  N   GLY K   3     -55.855   2.719 -47.910  0.00  0.00    +0.000 N 
ATOM     10  CA  GLY K   3     -55.416   3.864 -48.712  0.00  0.00    +0.000 C 
ATOM     11  C   GLY K   3     -56.512   4.863 -49.043  0.00  0.00    +0.000 C 
ATOM     12  O   GLY K   3     -56.239   5.893 -49.671  0.00  0.00    +0.000 OA
ATOM     13  N   PHE K   4     -57.745   4.547 -48.638  0.00  0.00    +0.000 N 
ATOM     14  CA  PHE K   4     -58.907   5.412 -48.854  0.00  0.00    +0.000 C 
ATOM     15  C   PHE K   4     -58.817   6.668 -47.990  0.00  0.00    +0.000 C 
ATOM     16  O   PHE K   4     -58.274   6.621 -46.871  0.00  0.00    +0.000 OA
ATOM     17  CB  PHE K   4     -60.206   4.649 -48.562  0.00  0.00    +0.000 C 
ATOM     18  CG  PHE K   4     -60.273   3.307 -49.237  0.00  0.00    +0.000 A 
ATOM     19  CD1 PHE K   4     -60.669   3.206 -50.565  0.00  0.00    +0.000 A 
ATOM     20  CD2 PHE K   4     -59.884   2.153 -48.566  0.00  0.00    +0.000 A 
ATOM     21  CE1 PHE K   4     -60.709   1.962 -51.206  0.00  0.00    +0.000 A 
ATOM     22  CE2 PHE K   4     -59.917   0.905 -49.190  0.00  0.00    +0.000 A 
ATOM     23  CZ  PHE K   4     -60.327   0.810 -50.516  0.00  0.00    +0.000 A 
ATOM     24  H   GLY K   1     -56.067  -4.993 -49.438  0.00  0.00    +0.000 HD
ATOM     25  H   GLY K   1     -56.782  -3.679 -50.169  0.00  0.00    +0.000 HD
ATOM     26  H   GLY K   1     -57.518  -4.408 -48.865  0.00  0.00    +0.000 HD
ATOM     27  H   GLY K   2     -54.856  -0.975 -47.947  0.00  0.00    +0.000 HD
ATOM     28  H   GLY K   3     -56.039   2.851 -46.952  0.00  0.00    +0.000 HD
ATOM     29  H   PHE K   4     -57.879   3.691 -48.171  0.00  0.00    +0.000 HD
TER 
REMARK  Name = /data/user_data/xianyang/t3-aimnet-affinity-balanced/L3/P11926/pocket.pdb
REMARK                            x       y       z     vdW  Elec       q    Type
REMARK                         _______ _______ _______ _____ _____    ______ ____
ATOM      1  N   GLU L   1     -58.832  -3.605 -46.029  0.00  0.00    +0.000 N 
ATOM      2  CA  GLU L   1     -58.308  -3.251 -44.711  0.00  0.00    +0.000 C 
ATOM      3  C   GLU L   1     -58.346  -1.740 -44.427  0.00  0.00    +0.000 C 
ATOM      4  O   GLU L   1     -57.314  -1.163 -44.111  0.00  0.00    +0.000 OA
ATOM      5  CB  GLU L   1     -56.853  -3.722 -44.586  0.00  0.00    +0.000 C 
ATOM      6  CG  GLU L   1     -56.645  -5.219 -44.674  0.00  0.00    +0.000 C 
ATOM      7  CD  GLU L   1     -55.213  -5.597 -45.030  0.00  0.00    +0.000 C 
ATOM      8  OE1 GLU L   1     -54.370  -4.698 -45.280  0.00  0.00    +0.000 OA
ATOM      9  OE2 GLU L   1     -54.921  -6.808 -45.082  0.00  0.00    +0.000 OA
ATOM     10  N   PRO L   2     -59.517  -1.089 -44.537  0.00  0.00    +0.000 N 
ATOM     11  CA  PRO L   2     -59.489   0.384 -44.375  0.00  0.00    +0.000 C 
ATOM     12  C   PRO L   2     -59.241   0.795 -42.919  0.00  0.00    +0.000 C 
ATOM     13  O   PRO L   2     -59.778   0.169 -42.003  0.00  0.00    +0.000 OA
ATOM     14  CB  PRO L   2     -60.905   0.808 -44.769  0.00  0.00    +0.000 C 
ATOM     15  CG  PRO L   2     -61.739  -0.398 -44.420  0.00  0.00    +0.000 C 
ATOM     16  CD  PRO L   2     -60.888  -1.587 -44.759  0.00  0.00    +0.000 C 
ATOM     17  N   GLY L   3     -58.415   1.826 -42.726  0.00  0.00    +0.000 N 
ATOM     18  CA  GLY L   3     -58.214   2.433 -41.411  0.00  0.00    +0.000 C 
ATOM     19  C   GLY L   3     -58.725   3.855 -41.467  0.00  0.00    +0.000 C 
ATOM     20  O   GLY L   3     -59.816   4.166 -40.945  0.00  0.00    +0.000 OA
ATOM     21  N   ARG L   4     -57.964   4.704 -42.153  0.00  0.00    +0.000 N 
ATOM     22  CA  ARG L   4     -58.232   6.151 -42.250  0.00  0.00    +0.000 C 
ATOM     23  C   ARG L   4     -59.688   6.480 -42.616  0.00  0.00    +0.000 C 
ATOM     24  O   ARG L   4     -60.311   7.368 -42.027  0.00  0.00    +0.000 OA
ATOM     25  CB  ARG L   4     -57.290   6.766 -43.304  0.00  0.00    +0.000 C 
ATOM     26  CG  ARG L   4     -57.256   8.294 -43.293  0.00  0.00    +0.000 C 
ATOM     27  CD  ARG L   4     -56.445   8.839 -44.465  0.00  0.00    +0.000 C 
ATOM     28  NE  ARG L   4     -55.085   8.287 -44.492  0.00  0.00    +0.000 N 
ATOM     29  CZ  ARG L   4     -54.059   8.760 -43.778  0.00  0.00    +0.000 C 
ATOM     30  NH1 ARG L   4     -52.861   8.204 -43.896  0.00  0.00    +0.000 N 
ATOM     31  NH2 ARG L   4     -54.224   9.791 -42.956  0.00  0.00    +0.000 N 
ATOM     32  N   TYR L   5     -60.206   5.747 -43.602  0.00  0.00    +0.000 N 
ATOM     33  CA  TYR L   5     -61.592   5.899 -44.077  0.00  0.00    +0.000 C 
ATOM     34  C   TYR L   5     -62.642   5.948 -42.975  0.00  0.00    +0.000 C 
ATOM     35  O   TYR L   5     -63.563   6.772 -43.033  0.00  0.00    +0.000 OA
ATOM     36  CB  TYR L   5     -61.964   4.793 -45.086  0.00  0.00    +0.000 C 
ATOM     37  CG  TYR L   5     -63.435   4.846 -45.440  0.00  0.00    +0.000 A 
ATOM     38  CD1 TYR L   5     -63.910   5.784 -46.364  0.00  0.00    +0.000 A 
ATOM     39  CD2 TYR L   5     -64.357   4.004 -44.813  0.00  0.00    +0.000 A 
ATOM     40  CE1 TYR L   5     -65.271   5.877 -46.671  0.00  0.00    +0.000 A 
ATOM     41  CE2 TYR L   5     -65.729   4.085 -45.113  0.00  0.00    +0.000 A 
ATOM     42  CZ  TYR L   5     -66.170   5.027 -46.040  0.00  0.00    +0.000 A 
ATOM     43  OH  TYR L   5     -67.507   5.111 -46.351  0.00  0.00    +0.000 OA
ATOM     44  H   GLU L   1     -58.780  -4.616 -46.155  0.00  0.00    +0.000 HD
ATOM     45  H   GLU L   1     -58.278  -3.143 -46.750  0.00  0.00    +0.000 HD
ATOM     46  H   GLU L   1     -59.804  -3.303 -46.101  0.00  0.00    +0.000 HD
ATOM     47  H   GLY L   3     -57.923   2.191 -43.497  0.00  0.00    +0.000 HD
ATOM     48  H   ARG L   4     -57.177   4.346 -42.623  0.00  0.00    +0.000 HD
ATOM     49  H   ARG L   4     -54.917   7.514 -45.078  0.00  0.00    +0.000 HD
ATOM     50  H   ARG L   4     -52.731   7.440 -44.503  0.00  0.00    +0.000 HD
ATOM     51  H   ARG L   4     -52.102   8.555 -43.377  0.00  0.00    +0.000 HD
ATOM     52  H   ARG L   4     -55.110  10.209 -42.863  0.00  0.00    +0.000 HD
ATOM     53  H   ARG L   4     -53.460  10.137 -42.440  0.00  0.00    +0.000 HD
ATOM     54  H   TYR L   5     -59.634   5.071 -44.033  0.00  0.00    +0.000 HD
ATOM     55  H   TYR L   5     -67.804   5.744 -46.974  0.00  0.00    +0.000 HD
TER 
REMARK  Name = /data/user_data/xianyang/t3-aimnet-affinity-balanced/L3/P11926/pocket.pdb
REMARK                            x       y       z     vdW  Elec       q    Type
REMARK                         _______ _______ _______ _____ _____    ______ ____
ATOM      1  N   ALA M   1     -57.274   9.767 -37.552  0.00  0.00    +0.000 N 
ATOM      2  CA  ALA M   1     -56.396   8.735 -38.091  0.00  0.00    +0.000 C 
ATOM      3  C   ALA M   1     -54.929   9.035 -37.832  0.00  0.00    +0.000 C 
ATOM      4  O   ALA M   1     -54.466  10.148 -38.098  0.00  0.00    +0.000 OA
ATOM      5  CB  ALA M   1     -56.640   8.559 -39.590  0.00  0.00    +0.000 C 
ATOM      6  N   TYR M   2     -54.207   8.039 -37.320  0.00  0.00    +0.000 N 
ATOM      7  CA  TYR M   2     -52.747   8.148 -37.086  0.00  0.00    +0.000 C 
ATOM      8  C   TYR M   2     -52.378   9.374 -36.256  0.00  0.00    +0.000 C 
ATOM      9  O   TYR M   2     -51.433  10.100 -36.560  0.00  0.00    +0.000 OA
ATOM     10  CB  TYR M   2     -51.979   8.087 -38.415  0.00  0.00    +0.000 C 
ATOM     11  CG  TYR M   2     -52.412   6.881 -39.220  0.00  0.00    +0.000 A 
ATOM     12  CD2 TYR M   2     -52.044   5.592 -38.821  0.00  0.00    +0.000 A 
ATOM     13  CD1 TYR M   2     -53.231   7.019 -40.344  0.00  0.00    +0.000 A 
ATOM     14  CE2 TYR M   2     -52.458   4.462 -39.537  0.00  0.00    +0.000 A 
ATOM     15  CE1 TYR M   2     -53.656   5.884 -41.070  0.00  0.00    +0.000 A 
ATOM     16  CZ  TYR M   2     -53.264   4.622 -40.647  0.00  0.00    +0.000 A 
ATOM     17  OH  TYR M   2     -53.672   3.512 -41.325  0.00  0.00    +0.000 OA
ATOM     18  H   ALA M   1     -58.245   9.524 -37.749  0.00  0.00    +0.000 HD
ATOM     19  H   ALA M   1     -57.053  10.663 -37.987  0.00  0.00    +0.000 HD
ATOM     20  H   ALA M   1     -57.138   9.836 -36.543  0.00  0.00    +0.000 HD
ATOM     21  H   TYR M   2     -54.661   7.197 -37.088  0.00  0.00    +0.000 HD
ATOM     22  H   TYR M   2     -54.219   3.599 -42.081  0.00  0.00    +0.000 HD
TER 
