REMARK  Name = /data/user_data/xianyang/t3-aimnet-affinity-balanced/L3/P43250/pocket.pdb
REMARK                            x       y       z     vdW  Elec       q    Type
REMARK                         _______ _______ _______ _____ _____    ______ ____
ATOM      1  N   LEU A   1     -32.405  33.493  33.503  0.00  0.00    +0.000 N 
ATOM      2  CA  LEU A   1     -31.459  33.955  32.495  0.00  0.00    +0.000 C 
ATOM      3  C   LEU A   1     -32.120  34.089  31.140  0.00  0.00    +0.000 C 
ATOM      4  O   LEU A   1     -31.876  35.049  30.441  0.00  0.00    +0.000 OA
ATOM      5  CB  LEU A   1     -30.274  32.997  32.408  0.00  0.00    +0.000 C 
ATOM      6  CG  LEU A   1     -29.492  32.889  33.709  0.00  0.00    +0.000 C 
ATOM      7  CD1 LEU A   1     -28.360  31.872  33.593  0.00  0.00    +0.000 C 
ATOM      8  CD2 LEU A   1     -28.971  34.286  34.094  0.00  0.00    +0.000 C 
ATOM      9  N   GLY A   2     -32.960  33.135  30.772  0.00  0.00    +0.000 N 
ATOM     10  CA  GLY A   2     -33.728  33.236  29.540  0.00  0.00    +0.000 C 
ATOM     11  C   GLY A   2     -34.794  32.169  29.434  0.00  0.00    +0.000 C 
ATOM     12  O   GLY A   2     -34.951  31.326  30.325  0.00  0.00    +0.000 OA
ATOM     13  N   LYS A   3     -35.529  32.197  28.332  0.00  0.00    +0.000 N 
ATOM     14  CA  LYS A   3     -36.651  31.295  28.178  0.00  0.00    +0.000 C 
ATOM     15  C   LYS A   3     -36.429  30.410  27.006  0.00  0.00    +0.000 C 
ATOM     16  O   LYS A   3     -36.056  30.887  25.953  0.00  0.00    +0.000 OA
ATOM     17  CB  LYS A   3     -37.945  32.084  28.051  0.00  0.00    +0.000 C 
ATOM     18  CG  LYS A   3     -38.537  32.411  29.424  0.00  0.00    +0.000 C 
ATOM     19  CD  LYS A   3     -39.088  33.776  29.503  0.00  0.00    +0.000 C 
ATOM     20  CE  LYS A   3     -39.401  34.113  30.962  0.00  0.00    +0.000 C 
ATOM     21  NZ  LYS A   3     -40.132  33.020  31.702  0.00  0.00    +0.000 N 
ATOM     22  N   GLY A   4     -36.607  29.106  27.229  0.00  0.00    +0.000 N 
ATOM     23  CA  GLY A   4     -36.347  28.039  26.253  0.00  0.00    +0.000 C 
ATOM     24  C   GLY A   4     -37.639  27.301  25.878  0.00  0.00    +0.000 C 
ATOM     25  O   GLY A   4     -38.533  27.170  26.701  0.00  0.00    +0.000 OA
ATOM     26  N   GLY A   5     -37.741  26.806  24.648  0.00  0.00    +0.000 N 
ATOM     27  CA  GLY A   5     -38.930  26.091  24.158  0.00  0.00    +0.000 C 
ATOM     28  C   GLY A   5     -39.698  25.230  25.145  0.00  0.00    +0.000 C 
ATOM     29  O   GLY A   5     -40.930  25.205  25.114  0.00  0.00    +0.000 OA
ATOM     30  N   PHE A   6     -39.005  24.549  26.048  0.00  0.00    +0.000 N 
ATOM     31  CA  PHE A   6     -39.701  23.709  27.039  0.00  0.00    +0.000 C 
ATOM     32  C   PHE A   6     -39.697  24.231  28.465  0.00  0.00    +0.000 C 
ATOM     33  O   PHE A   6     -40.300  23.626  29.362  0.00  0.00    +0.000 OA
ATOM     34  CB  PHE A   6     -39.148  22.276  26.996  0.00  0.00    +0.000 C 
ATOM     35  CG  PHE A   6     -39.426  21.543  25.672  0.00  0.00    +0.000 A 
ATOM     36  CD1 PHE A   6     -38.556  21.665  24.599  0.00  0.00    +0.000 A 
ATOM     37  CD2 PHE A   6     -40.556  20.736  25.525  0.00  0.00    +0.000 A 
ATOM     38  CE1 PHE A   6     -38.789  20.987  23.408  0.00  0.00    +0.000 A 
ATOM     39  CE2 PHE A   6     -40.798  20.069  24.335  0.00  0.00    +0.000 A 
ATOM     40  CZ  PHE A   6     -39.908  20.196  23.270  0.00  0.00    +0.000 A 
ATOM     41  N   GLY A   7     -39.051  25.361  28.699  0.00  0.00    +0.000 N 
ATOM     42  CA  GLY A   7     -38.982  25.898  30.062  0.00  0.00    +0.000 C 
ATOM     43  C   GLY A   7     -38.022  27.050  30.191  0.00  0.00    +0.000 C 
ATOM     44  O   GLY A   7     -37.590  27.608  29.212  0.00  0.00    +0.000 OA
ATOM     45  N   GLU A   8     -37.716  27.446  31.412  0.00  0.00    +0.000 N 
ATOM     46  CA  GLU A   8     -36.786  28.566  31.602  0.00  0.00    +0.000 C 
ATOM     47  C   GLU A   8     -35.376  28.082  31.839  0.00  0.00    +0.000 C 
ATOM     48  O   GLU A   8     -35.130  26.920  32.182  0.00  0.00    +0.000 OA
ATOM     49  CB  GLU A   8     -37.211  29.508  32.732  0.00  0.00    +0.000 C 
ATOM     50  CG  GLU A   8     -37.897  28.895  33.949  0.00  0.00    +0.000 C 
ATOM     51  CD  GLU A   8     -38.843  29.884  34.630  0.00  0.00    +0.000 C 
ATOM     52  OE1 GLU A   8     -39.394  30.752  33.915  0.00  0.00    +0.000 OA
ATOM     53  OE2 GLU A   8     -39.045  29.788  35.871  0.00  0.00    +0.000 OA
ATOM     54  N   VAL A   9     -34.457  29.006  31.665  0.00  0.00    +0.000 N 
ATOM     55  CA  VAL A   9     -33.119  28.775  32.033  0.00  0.00    +0.000 C 
ATOM     56  C   VAL A   9     -32.744  29.808  33.036  0.00  0.00    +0.000 C 
ATOM     57  O   VAL A   9     -32.980  30.980  32.819  0.00  0.00    +0.000 OA
ATOM     58  CB  VAL A   9     -32.236  28.947  30.847  0.00  0.00    +0.000 C 
ATOM     59  CG2 VAL A   9     -30.759  28.622  31.222  0.00  0.00    +0.000 C 
ATOM     60  CG1 VAL A   9     -32.785  28.095  29.691  0.00  0.00    +0.000 C 
ATOM     61  H   LEU A   1     -33.192  34.140  33.553  0.00  0.00    +0.000 HD
ATOM     62  H   LEU A   1     -31.941  33.451  34.411  0.00  0.00    +0.000 HD
ATOM     63  H   LEU A   1     -32.744  32.564  33.251  0.00  0.00    +0.000 HD
ATOM     64  H   GLY A   2     -33.068  32.341  31.343  0.00  0.00    +0.000 HD
ATOM     65  H   LYS A   3     -35.311  32.834  27.614  0.00  0.00    +0.000 HD
ATOM     66  H   LYS A   3     -41.038  32.858  31.262  0.00  0.00    +0.000 HD
ATOM     67  H   LYS A   3     -40.271  33.301  32.673  0.00  0.00    +0.000 HD
ATOM     68  H   LYS A   3     -39.581  32.162  31.672  0.00  0.00    +0.000 HD
ATOM     69  H   GLY A   4     -36.938  28.838  28.117  0.00  0.00    +0.000 HD
ATOM     70  H   GLY A   5     -36.981  26.924  24.033  0.00  0.00    +0.000 HD
ATOM     71  H   PHE A   6     -38.022  24.605  26.056  0.00  0.00    +0.000 HD
ATOM     72  H   GLY A   7     -38.616  25.842  27.958  0.00  0.00    +0.000 HD
ATOM     73  H   GLU A   8     -38.110  26.992  32.192  0.00  0.00    +0.000 HD
ATOM     74  H   VAL A   9     -34.709  29.872  31.271  0.00  0.00    +0.000 HD
TER 
REMARK  Name = /data/user_data/xianyang/t3-aimnet-affinity-balanced/L3/P43250/pocket.pdb
REMARK                            x       y       z     vdW  Elec       q    Type
REMARK                         _______ _______ _______ _____ _____    ______ ____
ATOM      1  N   ALA B   1     -25.659  27.184  34.979  0.00  0.00    +0.000 N 
ATOM      2  CA  ALA B   1     -26.987  27.482  34.451  0.00  0.00    +0.000 C 
ATOM      3  C   ALA B   1     -27.832  26.260  34.596  0.00  0.00    +0.000 C 
ATOM      4  O   ALA B   1     -27.346  25.130  34.553  0.00  0.00    +0.000 OA
ATOM      5  CB  ALA B   1     -26.930  27.853  33.035  0.00  0.00    +0.000 C 
ATOM      6  H   ALA B   1     -25.065  28.008  34.889  0.00  0.00    +0.000 HD
ATOM      7  H   ALA B   1     -25.250  26.411  34.454  0.00  0.00    +0.000 HD
ATOM      8  H   ALA B   1     -25.734  26.925  35.963  0.00  0.00    +0.000 HD
TER 
REMARK  Name = /data/user_data/xianyang/t3-aimnet-affinity-balanced/L3/P43250/pocket.pdb
REMARK                            x       y       z     vdW  Elec       q    Type
REMARK                         _______ _______ _______ _____ _____    ______ ____
ATOM      1  N   LYS C   1     -31.209  24.511  32.933  0.00  0.00    +0.000 N 
ATOM      2  CA  LYS C   1     -32.205  24.557  31.876  0.00  0.00    +0.000 C 
ATOM      3  C   LYS C   1     -33.324  23.621  32.288  0.00  0.00    +0.000 C 
ATOM      4  O   LYS C   1     -33.111  22.428  32.457  0.00  0.00    +0.000 OA
ATOM      5  CB  LYS C   1     -31.566  24.148  30.545  0.00  0.00    +0.000 C 
ATOM      6  CG  LYS C   1     -32.475  24.104  29.328  0.00  0.00    +0.000 C 
ATOM      7  CD  LYS C   1     -31.663  23.670  28.127  0.00  0.00    +0.000 C 
ATOM      8  CE  LYS C   1     -32.326  23.962  26.783  0.00  0.00    +0.000 C 
ATOM      9  NZ  LYS C   1     -31.311  23.913  25.616  0.00  0.00    +0.000 N 
ATOM     10  N   LYS C   2     -34.511  24.176  32.482  0.00  0.00    +0.000 N 
ATOM     11  CA  LYS C   2     -35.677  23.382  32.826  0.00  0.00    +0.000 C 
ATOM     12  C   LYS C   2     -36.477  23.057  31.588  0.00  0.00    +0.000 C 
ATOM     13  O   LYS C   2     -36.673  23.887  30.679  0.00  0.00    +0.000 OA
ATOM     14  CB  LYS C   2     -36.588  24.117  33.789  0.00  0.00    +0.000 C 
ATOM     15  CG  LYS C   2     -36.064  24.191  35.201  0.00  0.00    +0.000 C 
ATOM     16  CD  LYS C   2     -36.151  25.623  35.726  0.00  0.00    +0.000 C 
ATOM     17  CE  LYS C   2     -35.530  25.776  37.115  0.00  0.00    +0.000 C 
ATOM     18  NZ  LYS C   2     -35.675  27.201  37.590  0.00  0.00    +0.000 N 
ATOM     19  N   LEU C   3     -36.909  21.810  31.579  0.00  0.00    +0.000 N 
ATOM     20  CA  LEU C   3     -37.830  21.310  30.614  0.00  0.00    +0.000 C 
ATOM     21  C   LEU C   3     -39.063  20.840  31.384  0.00  0.00    +0.000 C 
ATOM     22  O   LEU C   3     -38.945  19.995  32.258  0.00  0.00    +0.000 OA
ATOM     23  CB  LEU C   3     -37.141  20.138  29.925  0.00  0.00    +0.000 C 
ATOM     24  CG  LEU C   3     -35.744  20.380  29.349  0.00  0.00    +0.000 C 
ATOM     25  CD2 LEU C   3     -35.352  19.178  28.531  0.00  0.00    +0.000 C 
ATOM     26  CD1 LEU C   3     -35.685  21.572  28.469  0.00  0.00    +0.000 C 
ATOM     27  H   LYS C   1     -30.433  25.130  32.696  0.00  0.00    +0.000 HD
ATOM     28  H   LYS C   1     -30.864  23.556  33.034  0.00  0.00    +0.000 HD
ATOM     29  H   LYS C   1     -31.630  24.815  33.811  0.00  0.00    +0.000 HD
ATOM     30  H   LYS C   1     -30.905  22.979  25.558  0.00  0.00    +0.000 HD
ATOM     31  H   LYS C   1     -30.571  24.596  25.780  0.00  0.00    +0.000 HD
ATOM     32  H   LYS C   1     -31.788  24.132  24.741  0.00  0.00    +0.000 HD
ATOM     33  H   LYS C   2     -34.605  25.152  32.391  0.00  0.00    +0.000 HD
ATOM     34  H   LYS C   2     -35.197  27.826  36.941  0.00  0.00    +0.000 HD
ATOM     35  H   LYS C   2     -35.262  27.294  38.518  0.00  0.00    +0.000 HD
ATOM     36  H   LYS C   2     -36.664  27.446  37.632  0.00  0.00    +0.000 HD
ATOM     37  H   LEU C   3     -36.579  21.195  32.273  0.00  0.00    +0.000 HD
TER 
REMARK  Name = /data/user_data/xianyang/t3-aimnet-affinity-balanced/L3/P43250/pocket.pdb
REMARK                            x       y       z     vdW  Elec       q    Type
REMARK                         _______ _______ _______ _____ _____    ______ ____
ATOM      1  N   GLU D   1     -30.483  15.138  23.472  0.00  0.00    +0.000 N 
ATOM      2  CA  GLU D   1     -29.672  16.298  23.817  0.00  0.00    +0.000 C 
ATOM      3  C   GLU D   1     -28.866  15.957  25.044  0.00  0.00    +0.000 C 
ATOM      4  O   GLU D   1     -27.668  16.218  25.087  0.00  0.00    +0.000 OA
ATOM      5  CB  GLU D   1     -30.521  17.576  23.989  0.00  0.00    +0.000 C 
ATOM      6  CG  GLU D   1     -29.796  18.758  24.639  0.00  0.00    +0.000 C 
ATOM      7  CD  GLU D   1     -30.576  20.085  24.681  0.00  0.00    +0.000 C 
ATOM      8  OE1 GLU D   1     -31.849  20.071  24.659  0.00  0.00    +0.000 OA
ATOM      9  OE2 GLU D   1     -29.878  21.170  24.729  0.00  0.00    +0.000 OA
ATOM     10  H   GLU D   1     -31.038  15.346  22.642  0.00  0.00    +0.000 HD
ATOM     11  H   GLU D   1     -31.104  14.914  24.250  0.00  0.00    +0.000 HD
ATOM     12  H   GLU D   1     -29.874  14.342  23.283  0.00  0.00    +0.000 HD
TER 
REMARK  Name = /data/user_data/xianyang/t3-aimnet-affinity-balanced/L3/P43250/pocket.pdb
REMARK                            x       y       z     vdW  Elec       q    Type
REMARK                         _______ _______ _______ _____ _____    ______ ____
ATOM      1  N   VAL E   1     -20.656  23.505  25.796  0.00  0.00    +0.000 N 
ATOM      2  CA  VAL E   1     -21.284  23.498  27.052  0.00  0.00    +0.000 C 
ATOM      3  C   VAL E   1     -21.264  22.104  27.667  0.00  0.00    +0.000 C 
ATOM      4  O   VAL E   1     -21.652  21.163  27.001  0.00  0.00    +0.000 OA
ATOM      5  CB  VAL E   1     -22.743  24.051  26.862  0.00  0.00    +0.000 C 
ATOM      6  CG2 VAL E   1     -23.620  23.695  27.988  0.00  0.00    +0.000 C 
ATOM      7  CG1 VAL E   1     -22.686  25.509  26.814  0.00  0.00    +0.000 C 
ATOM      8  H   VAL E   1     -20.683  24.448  25.407  0.00  0.00    +0.000 HD
ATOM      9  H   VAL E   1     -21.143  22.865  25.169  0.00  0.00    +0.000 HD
ATOM     10  H   VAL E   1     -19.686  23.208  25.899  0.00  0.00    +0.000 HD
TER 
REMARK  Name = /data/user_data/xianyang/t3-aimnet-affinity-balanced/L3/P43250/pocket.pdb
REMARK                            x       y       z     vdW  Elec       q    Type
REMARK                         _______ _______ _______ _____ _____    ______ ____
ATOM      1  N   LEU F   1     -25.719  23.077  33.542  0.00  0.00    +0.000 N 
ATOM      2  CA  LEU F   1     -24.824  23.320  32.457  0.00  0.00    +0.000 C 
ATOM      3  C   LEU F   1     -23.797  24.377  32.790  0.00  0.00    +0.000 C 
ATOM      4  O   LEU F   1     -24.008  25.217  33.613  0.00  0.00    +0.000 OA
ATOM      5  CB  LEU F   1     -25.651  23.814  31.270  0.00  0.00    +0.000 C 
ATOM      6  CG  LEU F   1     -26.674  22.837  30.709  0.00  0.00    +0.000 C 
ATOM      7  CD1 LEU F   1     -27.556  23.523  29.775  0.00  0.00    +0.000 C 
ATOM      8  CD2 LEU F   1     -25.988  21.727  29.992  0.00  0.00    +0.000 C 
ATOM      9  N   THR F   2     -22.651  24.322  32.144  0.00  0.00    +0.000 N 
ATOM     10  CA  THR F   2     -21.684  25.388  32.277  0.00  0.00    +0.000 C 
ATOM     11  C   THR F   2     -22.383  26.680  32.162  0.00  0.00    +0.000 C 
ATOM     12  O   THR F   2     -23.095  26.891  31.197  0.00  0.00    +0.000 OA
ATOM     13  CB  THR F   2     -20.761  25.309  31.113  0.00  0.00    +0.000 C 
ATOM     14  OG1 THR F   2     -20.223  23.965  31.037  0.00  0.00    +0.000 OA
ATOM     15  CG2 THR F   2     -19.646  26.272  31.317  0.00  0.00    +0.000 C 
ATOM     16  N   LEU F   3     -22.181  27.582  33.122  0.00  0.00    +0.000 N 
ATOM     17  CA  LEU F   3     -22.820  28.924  33.055  0.00  0.00    +0.000 C 
ATOM     18  C   LEU F   3     -22.105  29.845  32.087  0.00  0.00    +0.000 C 
ATOM     19  O   LEU F   3     -21.003  30.233  32.348  0.00  0.00    +0.000 OA
ATOM     20  CB  LEU F   3     -22.834  29.590  34.420  0.00  0.00    +0.000 C 
ATOM     21  CG  LEU F   3     -23.389  31.042  34.330  0.00  0.00    +0.000 C 
ATOM     22  CD1 LEU F   3     -24.871  31.071  34.008  0.00  0.00    +0.000 C 
ATOM     23  CD2 LEU F   3     -23.153  31.772  35.603  0.00  0.00    +0.000 C 
ATOM     24  N   MET F   4     -22.767  30.239  31.011  0.00  0.00    +0.000 N 
ATOM     25  CA  MET F   4     -22.207  31.175  30.022  0.00  0.00    +0.000 C 
ATOM     26  C   MET F   4     -22.925  32.510  30.101  0.00  0.00    +0.000 C 
ATOM     27  O   MET F   4     -24.044  32.628  29.646  0.00  0.00    +0.000 OA
ATOM     28  CB  MET F   4     -22.343  30.609  28.606  0.00  0.00    +0.000 C 
ATOM     29  CG  MET F   4     -21.770  29.191  28.453  0.00  0.00    +0.000 C 
ATOM     30  SD  MET F   4     -19.986  29.151  28.648  0.00  0.00    +0.000 S 
ATOM     31  CE  MET F   4     -19.389  30.026  27.221  0.00  0.00    +0.000 C 
ATOM     32  N   ASN F   5     -22.260  33.521  30.653  0.00  0.00    +0.000 N 
ATOM     33  CA  ASN F   5     -22.931  34.743  31.065  0.00  0.00    +0.000 C 
ATOM     34  C   ASN F   5     -22.582  35.945  30.259  0.00  0.00    +0.000 C 
ATOM     35  O   ASN F   5     -23.010  37.018  30.593  0.00  0.00    +0.000 OA
ATOM     36  CB  ASN F   5     -22.566  35.082  32.498  0.00  0.00    +0.000 C 
ATOM     37  CG  ASN F   5     -23.773  35.465  33.317  0.00  0.00    +0.000 C 
ATOM     38  OD1 ASN F   5     -24.467  34.574  33.815  0.00  0.00    +0.000 OA
ATOM     39  ND2 ASN F   5     -24.026  36.791  33.501  0.00  0.00    +0.000 N 
ATOM     40  H   LEU F   1     -26.392  22.359  33.273  0.00  0.00    +0.000 HD
ATOM     41  H   LEU F   1     -26.214  23.938  33.774  0.00  0.00    +0.000 HD
ATOM     42  H   LEU F   1     -25.190  22.760  34.355  0.00  0.00    +0.000 HD
ATOM     43  H   THR F   2     -22.452  23.550  31.567  0.00  0.00    +0.000 HD
ATOM     44  H   THR F   2     -19.752  23.758  31.859  0.00  0.00    +0.000 HD
ATOM     45  H   LEU F   3     -21.601  27.357  33.885  0.00  0.00    +0.000 HD
ATOM     46  H   MET F   4     -23.676  29.890  30.865  0.00  0.00    +0.000 HD
ATOM     47  H   ASN F   5     -21.288  33.440  30.786  0.00  0.00    +0.000 HD
ATOM     48  H   ASN F   5     -23.444  37.466  33.083  0.00  0.00    +0.000 HD
ATOM     49  H   ASN F   5     -24.791  37.074  34.052  0.00  0.00    +0.000 HD
TER 
REMARK  Name = /data/user_data/xianyang/t3-aimnet-affinity-balanced/L3/P43250/pocket.pdb
REMARK                            x       y       z     vdW  Elec       q    Type
REMARK                         _______ _______ _______ _____ _____    ______ ____
ATOM      1  N   ASP G   1     -24.625  35.921  23.728  0.00  0.00    +0.000 N 
ATOM      2  CA  ASP G   1     -24.373  35.108  22.565  0.00  0.00    +0.000 C 
ATOM      3  C   ASP G   1     -23.777  35.954  21.470  0.00  0.00    +0.000 C 
ATOM      4  O   ASP G   1     -23.693  37.114  21.588  0.00  0.00    +0.000 OA
ATOM      5  CB  ASP G   1     -25.672  34.422  22.119  0.00  0.00    +0.000 C 
ATOM      6  CG  ASP G   1     -26.754  35.425  21.647  0.00  0.00    +0.000 C 
ATOM      7  OD2 ASP G   1     -27.863  35.408  22.236  0.00  0.00    +0.000 OA
ATOM      8  OD1 ASP G   1     -26.601  36.241  20.691  0.00  0.00    +0.000 OA
ATOM      9  H   ASP G   1     -23.759  36.374  24.020  0.00  0.00    +0.000 HD
ATOM     10  H   ASP G   1     -24.973  35.333  24.485  0.00  0.00    +0.000 HD
ATOM     11  H   ASP G   1     -25.321  36.631  23.502  0.00  0.00    +0.000 HD
TER 
REMARK  Name = /data/user_data/xianyang/t3-aimnet-affinity-balanced/L3/P43250/pocket.pdb
REMARK                            x       y       z     vdW  Elec       q    Type
REMARK                         _______ _______ _______ _____ _____    ______ ____
ATOM      1  N   ASP H   1     -26.868  22.866  13.952  0.00  0.00    +0.000 N 
ATOM      2  CA  ASP H   1     -27.561  24.096  14.282  0.00  0.00    +0.000 C 
ATOM      3  C   ASP H   1     -26.568  25.165  14.627  0.00  0.00    +0.000 C 
ATOM      4  O   ASP H   1     -26.842  26.043  15.474  0.00  0.00    +0.000 OA
ATOM      5  CB  ASP H   1     -28.442  23.841  15.503  0.00  0.00    +0.000 C 
ATOM      6  CG  ASP H   1     -29.586  24.865  15.693  0.00  0.00    +0.000 C 
ATOM      7  OD1 ASP H   1     -29.987  25.654  14.743  0.00  0.00    +0.000 OA
ATOM      8  OD2 ASP H   1     -30.167  24.859  16.817  0.00  0.00    +0.000 OA
ATOM      9  H   ASP H   1     -26.274  23.019  13.137  0.00  0.00    +0.000 HD
ATOM     10  H   ASP H   1     -27.550  22.137  13.744  0.00  0.00    +0.000 HD
ATOM     11  H   ASP H   1     -26.292  22.577  14.743  0.00  0.00    +0.000 HD
TER 
REMARK  Name = /data/user_data/xianyang/t3-aimnet-affinity-balanced/L3/P43250/pocket.pdb
REMARK                            x       y       z     vdW  Elec       q    Type
REMARK                         _______ _______ _______ _____ _____    ______ ____
ATOM      1  N   GLU I   1     -26.563  32.740  17.356  0.00  0.00    +0.000 N 
ATOM      2  CA  GLU I   1     -27.329  32.791  18.612  0.00  0.00    +0.000 C 
ATOM      3  C   GLU I   1     -27.006  31.589  19.475  0.00  0.00    +0.000 C 
ATOM      4  O   GLU I   1     -27.274  31.620  20.649  0.00  0.00    +0.000 OA
ATOM      5  CB  GLU I   1     -28.833  32.969  18.425  0.00  0.00    +0.000 C 
ATOM      6  CG  GLU I   1     -29.439  32.247  17.217  0.00  0.00    +0.000 C 
ATOM      7  CD  GLU I   1     -29.454  33.075  15.902  0.00  0.00    +0.000 C 
ATOM      8  OE2 GLU I   1     -30.571  33.555  15.589  0.00  0.00    +0.000 OA
ATOM      9  OE1 GLU I   1     -28.417  33.284  15.187  0.00  0.00    +0.000 OA
ATOM     10  N   ASN I   2     -26.386  30.555  18.912  0.00  0.00    +0.000 N 
ATOM     11  CA  ASN I   2     -26.147  29.338  19.631  0.00  0.00    +0.000 C 
ATOM     12  C   ASN I   2     -24.723  29.222  20.171  0.00  0.00    +0.000 C 
ATOM     13  O   ASN I   2     -24.332  28.157  20.775  0.00  0.00    +0.000 OA
ATOM     14  CB  ASN I   2     -26.436  28.190  18.689  0.00  0.00    +0.000 C 
ATOM     15  CG  ASN I   2     -27.907  27.763  18.690  0.00  0.00    +0.000 C 
ATOM     16  OD1 ASN I   2     -28.756  28.210  19.515  0.00  0.00    +0.000 OA
ATOM     17  ND2 ASN I   2     -28.221  26.899  17.754  0.00  0.00    +0.000 N 
ATOM     18  H   GLU I   1     -26.790  33.555  16.786  0.00  0.00    +0.000 HD
ATOM     19  H   GLU I   1     -26.803  31.890  16.846  0.00  0.00    +0.000 HD
ATOM     20  H   GLU I   1     -25.565  32.740  17.566  0.00  0.00    +0.000 HD
ATOM     21  H   ASN I   2     -26.084  30.628  17.978  0.00  0.00    +0.000 HD
ATOM     22  H   ASN I   2     -24.816  28.063  21.611  0.00  0.00    +0.000 HD
ATOM     23  H   ASN I   2     -27.531  26.575  17.131  0.00  0.00    +0.000 HD
ATOM     24  H   ASN I   2     -29.147  26.574  17.674  0.00  0.00    +0.000 HD
TER 
REMARK  Name = /data/user_data/xianyang/t3-aimnet-affinity-balanced/L3/P43250/pocket.pdb
REMARK                            x       y       z     vdW  Elec       q    Type
REMARK                         _______ _______ _______ _____ _____    ______ ____
ATOM      1  N   LEU J   1     -22.322  30.794  22.926  0.00  0.00    +0.000 N 
ATOM      2  CA  LEU J   1     -22.363  31.669  24.074  0.00  0.00    +0.000 C 
ATOM      3  C   LEU J   1     -20.951  32.071  24.483  0.00  0.00    +0.000 C 
ATOM      4  O   LEU J   1     -19.989  31.401  24.169  0.00  0.00    +0.000 OA
ATOM      5  CB  LEU J   1     -23.052  30.945  25.197  0.00  0.00    +0.000 C 
ATOM      6  CG  LEU J   1     -24.485  30.478  24.960  0.00  0.00    +0.000 C 
ATOM      7  CD2 LEU J   1     -25.203  29.951  26.210  0.00  0.00    +0.000 C 
ATOM      8  CD1 LEU J   1     -25.291  31.590  24.464  0.00  0.00    +0.000 C 
ATOM      9  H   LEU J   1     -21.857  31.269  22.153  0.00  0.00    +0.000 HD
ATOM     10  H   LEU J   1     -23.273  30.548  22.652  0.00  0.00    +0.000 HD
ATOM     11  H   LEU J   1     -21.807  29.946  23.163  0.00  0.00    +0.000 HD
TER 
REMARK  Name = /data/user_data/xianyang/t3-aimnet-affinity-balanced/L3/P43250/pocket.pdb
REMARK                            x       y       z     vdW  Elec       q    Type
REMARK                         _______ _______ _______ _____ _____    ______ ____
ATOM      1  N   SER K   1     -23.561  25.706  22.168  0.00  0.00    +0.000 N 
ATOM      2  CA  SER K   1     -24.715  25.621  23.068  0.00  0.00    +0.000 C 
ATOM      3  C   SER K   1     -25.864  25.079  22.282  0.00  0.00    +0.000 C 
ATOM      4  O   SER K   1     -25.835  25.045  21.036  0.00  0.00    +0.000 OA
ATOM      5  CB  SER K   1     -25.109  27.008  23.483  0.00  0.00    +0.000 C 
ATOM      6  OG  SER K   1     -26.124  26.999  24.457  0.00  0.00    +0.000 OA
ATOM      7  N   ASP K   2     -26.880  24.648  23.002  0.00  0.00    +0.000 N 
ATOM      8  CA  ASP K   2     -28.099  24.200  22.356  0.00  0.00    +0.000 C 
ATOM      9  C   ASP K   2     -27.902  23.046  21.385  0.00  0.00    +0.000 C 
ATOM     10  O   ASP K   2     -27.951  23.220  20.199  0.00  0.00    +0.000 OA
ATOM     11  CB  ASP K   2     -28.753  25.393  21.645  0.00  0.00    +0.000 C 
ATOM     12  CG  ASP K   2     -30.106  25.063  21.127  0.00  0.00    +0.000 C 
ATOM     13  OD2 ASP K   2     -30.642  23.975  21.497  0.00  0.00    +0.000 OA
ATOM     14  OD1 ASP K   2     -30.684  25.805  20.304  0.00  0.00    +0.000 OA
ATOM     15  H   SER K   1     -23.285  24.767  21.880  0.00  0.00    +0.000 HD
ATOM     16  H   SER K   1     -22.784  26.155  22.653  0.00  0.00    +0.000 HD
ATOM     17  H   SER K   1     -23.811  26.255  21.345  0.00  0.00    +0.000 HD
ATOM     18  H   SER K   1     -26.916  26.572  24.095  0.00  0.00    +0.000 HD
ATOM     19  H   ASP K   2     -26.811  24.630  23.984  0.00  0.00    +0.000 HD
TER 
