REMARK  Name = /home/xianyang/aimnet2_score_pipelines/work/L1234-fixed-receptor-eint-20260921/L2/Q8NER1/prepared.pdb
REMARK                            x       y       z     vdW  Elec       q    Type
REMARK                         _______ _______ _______ _____ _____    ______ ____
ATOM      1  CH3 ACE A   1     131.603 140.322 167.011  0.00  0.00    +0.000 C 
ATOM      2  C   ACE A   1     131.670 141.111 168.301  0.00  0.00    +0.000 C 
ATOM      3  O   ACE A   1     130.638 141.420 168.901  0.00  0.00    +0.000 OA
ATOM      4  N   VAL A   2     132.872 141.474 168.742  0.00  0.00    +0.000 N 
ATOM      5  H   VAL A   2     133.705 141.156 168.270  0.00  0.00    +0.000 HD
ATOM      6  CA  VAL A   2     132.968 142.271 169.963  0.00  0.00    +0.000 C 
ATOM      7  C   VAL A   2     132.221 143.589 169.801  0.00  0.00    +0.000 C 
ATOM      8  O   VAL A   2     131.366 143.942 170.622  0.00  0.00    +0.000 OA
ATOM      9  CB  VAL A   2     134.438 142.497 170.344  0.00  0.00    +0.000 C 
ATOM     10  CG1 VAL A   2     134.551 143.652 171.303  0.00  0.00    +0.000 C 
ATOM     11  CG2 VAL A   2     134.997 141.248 170.971  0.00  0.00    +0.000 C 
ATOM     12  N   PHE A   3     132.506 144.320 168.721  0.00  0.00    +0.000 N 
ATOM     13  H   PHE A   3     133.236 144.026 168.092  0.00  0.00    +0.000 HD
ATOM     14  CA  PHE A   3     131.852 145.613 168.525  0.00  0.00    +0.000 C 
ATOM     15  C   PHE A   3     130.349 145.459 168.370  0.00  0.00    +0.000 C 
ATOM     16  O   PHE A   3     129.571 146.212 168.969  0.00  0.00    +0.000 OA
ATOM     17  CB  PHE A   3     132.408 146.321 167.299  0.00  0.00    +0.000 C 
ATOM     18  CG  PHE A   3     133.712 146.990 167.527  0.00  0.00    +0.000 A 
ATOM     19  CD1 PHE A   3     134.120 147.322 168.790  0.00  0.00    +0.000 A 
ATOM     20  CD2 PHE A   3     134.518 147.318 166.468  0.00  0.00    +0.000 A 
ATOM     21  CE1 PHE A   3     135.320 147.940 168.987  0.00  0.00    +0.000 A 
ATOM     22  CE2 PHE A   3     135.718 147.941 166.663  0.00  0.00    +0.000 A 
ATOM     23  CZ  PHE A   3     136.119 148.253 167.925  0.00  0.00    +0.000 A 
ATOM     24  N   LEU A   4     129.922 144.502 167.552  0.00  0.00    +0.000 N 
ATOM     25  H   LEU A   4     130.592 143.897 167.108  0.00  0.00    +0.000 HD
ATOM     26  CA  LEU A   4     128.507 144.326 167.276  0.00  0.00    +0.000 C 
ATOM     27  C   LEU A   4     127.752 143.961 168.536  0.00  0.00    +0.000 C 
ATOM     28  O   LEU A   4     126.693 144.523 168.817  0.00  0.00    +0.000 OA
ATOM     29  CB  LEU A   4     128.319 143.253 166.210  0.00  0.00    +0.000 C 
ATOM     30  CG  LEU A   4     126.924 142.656 166.101  0.00  0.00    +0.000 C 
ATOM     31  CD1 LEU A   4     125.975 143.685 165.576  0.00  0.00    +0.000 C 
ATOM     32  CD2 LEU A   4     126.943 141.461 165.196  0.00  0.00    +0.000 C 
ATOM     33  N   PHE A   5     128.287 143.032 169.321  0.00  0.00    +0.000 N 
ATOM     34  H   PHE A   5     129.166 142.585 169.082  0.00  0.00    +0.000 HD
ATOM     35  CA  PHE A   5     127.591 142.628 170.529  0.00  0.00    +0.000 C 
ATOM     36  C   PHE A   5     127.551 143.757 171.544  0.00  0.00    +0.000 C 
ATOM     37  O   PHE A   5     126.518 143.983 172.182  0.00  0.00    +0.000 OA
ATOM     38  CB  PHE A   5     128.249 141.395 171.125  0.00  0.00    +0.000 C 
ATOM     39  CG  PHE A   5     127.518 140.843 172.291  0.00  0.00    +0.000 A 
ATOM     40  CD1 PHE A   5     127.975 141.048 173.571  0.00  0.00    +0.000 A 
ATOM     41  CD2 PHE A   5     126.357 140.129 172.110  0.00  0.00    +0.000 A 
ATOM     42  CE1 PHE A   5     127.294 140.542 174.647  0.00  0.00    +0.000 A 
ATOM     43  CE2 PHE A   5     125.672 139.623 173.184  0.00  0.00    +0.000 A 
ATOM     44  CZ  PHE A   5     126.143 139.829 174.455  0.00  0.00    +0.000 A 
ATOM     45  N   GLY A   6     128.647 144.493 171.696  0.00  0.00    +0.000 N 
ATOM     46  H   GLY A   6     129.498 144.262 171.194  0.00  0.00    +0.000 HD
ATOM     47  CA  GLY A   6     128.631 145.598 172.628  0.00  0.00    +0.000 C 
ATOM     48  C   GLY A   6     127.601 146.644 172.277  0.00  0.00    +0.000 C 
ATOM     49  O   GLY A   6     126.762 147.012 173.108  0.00  0.00    +0.000 OA
ATOM     50  N   PHE A   7     127.630 147.113 171.032  0.00  0.00    +0.000 N 
ATOM     51  H   PHE A   7     128.309 146.765 170.364  0.00  0.00    +0.000 HD
ATOM     52  CA  PHE A   7     126.694 148.159 170.650  0.00  0.00    +0.000 C 
ATOM     53  C   PHE A   7     125.266 147.644 170.587  0.00  0.00    +0.000 C 
ATOM     54  O   PHE A   7     124.331 148.410 170.828  0.00  0.00    +0.000 OA
ATOM     55  CB  PHE A   7     127.108 148.772 169.325  0.00  0.00    +0.000 C 
ATOM     56  CG  PHE A   7     128.207 149.767 169.453  0.00  0.00    +0.000 A 
ATOM     57  CD1 PHE A   7     127.928 151.101 169.618  0.00  0.00    +0.000 A 
ATOM     58  CD2 PHE A   7     129.521 149.368 169.420  0.00  0.00    +0.000 A 
ATOM     59  CE1 PHE A   7     128.936 152.015 169.740  0.00  0.00    +0.000 A 
ATOM     60  CE2 PHE A   7     130.531 150.281 169.539  0.00  0.00    +0.000 A 
ATOM     61  CZ  PHE A   7     130.238 151.605 169.700  0.00  0.00    +0.000 A 
ATOM     62  N   SER A   8     125.067 146.358 170.303  0.00  0.00    +0.000 N 
ATOM     63  H   SER A   8     125.852 145.760 170.089  0.00  0.00    +0.000 HD
ATOM     64  CA  SER A   8     123.715 145.825 170.284  0.00  0.00    +0.000 C 
ATOM     65  C   SER A   8     123.140 145.744 171.682  0.00  0.00    +0.000 C 
ATOM     66  O   SER A   8     121.964 146.048 171.888  0.00  0.00    +0.000 OA
ATOM     67  CB  SER A   8     123.702 144.456 169.629  0.00  0.00    +0.000 C 
ATOM     68  OG  SER A   8     124.488 144.471 168.458  0.00  0.00    +0.000 OA
ATOM     69  HG  SER A   8     125.456 144.524 168.678  0.00  0.00    +0.000 HD
ATOM     70  N   NME A   9     123.947 145.337 172.659  0.00  0.00    +0.000 N 
ATOM     71  H   NME A   9     124.916 145.104 172.465  0.00  0.00    +0.000 HD
ATOM     72  C   NME A   9     123.469 145.359 174.033  0.00  0.00    +0.000 C 
TER 
REMARK  Name = /home/xianyang/aimnet2_score_pipelines/work/L1234-fixed-receptor-eint-20260921/L2/Q8NER1/prepared.pdb
REMARK                            x       y       z     vdW  Elec       q    Type
REMARK                         _______ _______ _______ _____ _____    ______ ____
ATOM      1  CH3 ACE B   1     124.563 154.289 165.901  0.00  0.00    +0.000 C 
ATOM      2  C   ACE B   1     125.672 154.920 165.080  0.00  0.00    +0.000 C 
ATOM      3  O   ACE B   1     126.323 154.234 164.292  0.00  0.00    +0.000 OA
ATOM      4  N   LEU B   2     125.884 156.226 165.213  0.00  0.00    +0.000 N 
ATOM      5  H   LEU B   2     125.276 156.784 165.791  0.00  0.00    +0.000 HD
ATOM      6  CA  LEU B   2     126.953 156.855 164.451  0.00  0.00    +0.000 C 
ATOM      7  C   LEU B   2     128.307 156.305 164.860  0.00  0.00    +0.000 C 
ATOM      8  O   LEU B   2     129.168 156.054 164.012  0.00  0.00    +0.000 OA
ATOM      9  CB  LEU B   2     126.906 158.366 164.621  0.00  0.00    +0.000 C 
ATOM     10  CG  LEU B   2     126.210 159.103 163.485  0.00  0.00    +0.000 C 
ATOM     11  CD1 LEU B   2     124.760 158.713 163.382  0.00  0.00    +0.000 C 
ATOM     12  CD2 LEU B   2     126.330 160.581 163.727  0.00  0.00    +0.000 C 
ATOM     13  N   ALA B   3     128.513 156.099 166.158  0.00  0.00    +0.000 N 
ATOM     14  H   ALA B   3     127.809 156.359 166.828  0.00  0.00    +0.000 HD
ATOM     15  CA  ALA B   3     129.764 155.507 166.606  0.00  0.00    +0.000 C 
ATOM     16  C   ALA B   3     129.933 154.107 166.047  0.00  0.00    +0.000 C 
ATOM     17  O   ALA B   3     131.014 153.747 165.576  0.00  0.00    +0.000 OA
ATOM     18  CB  ALA B   3     129.819 155.484 168.128  0.00  0.00    +0.000 C 
ATOM     19  N   TYR B   4     128.869 153.307 166.072  0.00  0.00    +0.000 N 
ATOM     20  H   TYR B   4     127.993 153.644 166.432  0.00  0.00    +0.000 HD
ATOM     21  CA  TYR B   4     128.960 151.950 165.546  0.00  0.00    +0.000 C 
ATOM     22  C   TYR B   4     129.267 151.957 164.058  0.00  0.00    +0.000 C 
ATOM     23  O   TYR B   4     130.080 151.165 163.576  0.00  0.00    +0.000 OA
ATOM     24  CB  TYR B   4     127.663 151.201 165.820  0.00  0.00    +0.000 C 
ATOM     25  CG  TYR B   4     127.562 149.897 165.088  0.00  0.00    +0.000 A 
ATOM     26  CD1 TYR B   4     126.824 149.794 163.930  0.00  0.00    +0.000 A 
ATOM     27  CD2 TYR B   4     128.201 148.768 165.556  0.00  0.00    +0.000 A 
ATOM     28  CE1 TYR B   4     126.732 148.612 163.257  0.00  0.00    +0.000 A 
ATOM     29  CE2 TYR B   4     128.110 147.578 164.889  0.00  0.00    +0.000 A 
ATOM     30  CZ  TYR B   4     127.374 147.507 163.738  0.00  0.00    +0.000 A 
ATOM     31  OH  TYR B   4     127.275 146.322 163.057  0.00  0.00    +0.000 OA
ATOM     32  HH  TYR B   4     126.746 146.413 162.262  0.00  0.00    +0.000 HD
ATOM     33  N   VAL B   5     128.613 152.842 163.311  0.00  0.00    +0.000 N 
ATOM     34  H   VAL B   5     127.914 153.440 163.740  0.00  0.00    +0.000 HD
ATOM     35  CA  VAL B   5     128.811 152.906 161.867  0.00  0.00    +0.000 C 
ATOM     36  C   VAL B   5     130.234 153.323 161.543  0.00  0.00    +0.000 C 
ATOM     37  O   VAL B   5     130.889 152.741 160.674  0.00  0.00    +0.000 OA
ATOM     38  CB  VAL B   5     127.796 153.867 161.236  0.00  0.00    +0.000 C 
ATOM     39  CG1 VAL B   5     128.201 154.179 159.834  0.00  0.00    +0.000 C 
ATOM     40  CG2 VAL B   5     126.438 153.250 161.253  0.00  0.00    +0.000 C 
ATOM     41  N   ILE B   6     130.733 154.345 162.230  0.00  0.00    +0.000 N 
ATOM     42  H   ILE B   6     130.162 154.824 162.920  0.00  0.00    +0.000 HD
ATOM     43  CA  ILE B   6     132.086 154.815 161.967  0.00  0.00    +0.000 C 
ATOM     44  C   ILE B   6     133.101 153.744 162.336  0.00  0.00    +0.000 C 
ATOM     45  O   ILE B   6     134.075 153.514 161.615  0.00  0.00    +0.000 OA
ATOM     46  CB  ILE B   6     132.345 156.130 162.716  0.00  0.00    +0.000 C 
ATOM     47  CG1 ILE B   6     131.527 157.246 162.079  0.00  0.00    +0.000 C 
ATOM     48  CG2 ILE B   6     133.805 156.473 162.685  0.00  0.00    +0.000 C 
ATOM     49  CD1 ILE B   6     131.264 158.397 162.993  0.00  0.00    +0.000 C 
ATOM     50  N   LEU B   7     132.885 153.063 163.457  0.00  0.00    +0.000 N 
ATOM     51  H   LEU B   7     132.101 153.301 164.055  0.00  0.00    +0.000 HD
ATOM     52  CA  LEU B   7     133.840 152.053 163.890  0.00  0.00    +0.000 C 
ATOM     53  C   LEU B   7     133.852 150.853 162.955  0.00  0.00    +0.000 C 
ATOM     54  O   LEU B   7     134.916 150.413 162.515  0.00  0.00    +0.000 OA
ATOM     55  CB  LEU B   7     133.532 151.618 165.318  0.00  0.00    +0.000 C 
ATOM     56  CG  LEU B   7     134.316 152.334 166.413  0.00  0.00    +0.000 C 
ATOM     57  CD1 LEU B   7     135.776 151.987 166.295  0.00  0.00    +0.000 C 
ATOM     58  CD2 LEU B   7     134.141 153.824 166.331  0.00  0.00    +0.000 C 
ATOM     59  N   THR B   8     132.685 150.303 162.638  0.00  0.00    +0.000 N 
ATOM     60  H   THR B   8     131.825 150.712 162.985  0.00  0.00    +0.000 HD
ATOM     61  CA  THR B   8     132.669 149.068 161.865  0.00  0.00    +0.000 C 
ATOM     62  C   THR B   8     132.628 149.312 160.365  0.00  0.00    +0.000 C 
ATOM     63  O   THR B   8     133.493 148.827 159.634  0.00  0.00    +0.000 OA
ATOM     64  CB  THR B   8     131.478 148.208 162.265  0.00  0.00    +0.000 C 
ATOM     65  OG1 THR B   8     130.276 148.853 161.840  0.00  0.00    +0.000 OA
ATOM     66  HG1 THR B   8     130.058 149.516 162.504  0.00  0.00    +0.000 HD
ATOM     67  CG2 THR B   8     131.449 148.019 163.758  0.00  0.00    +0.000 C 
ATOM     68  N   TYR B   9     131.624 150.042 159.888  0.00  0.00    +0.000 N 
ATOM     69  H   TYR B   9     130.930 150.411 160.522  0.00  0.00    +0.000 HD
ATOM     70  CA  TYR B   9     131.442 150.174 158.449  0.00  0.00    +0.000 C 
ATOM     71  C   TYR B   9     132.584 150.946 157.811  0.00  0.00    +0.000 C 
ATOM     72  O   TYR B   9     133.167 150.500 156.821  0.00  0.00    +0.000 OA
ATOM     73  CB  TYR B   9     130.110 150.848 158.141  0.00  0.00    +0.000 C 
ATOM     74  CG  TYR B   9     129.778 150.847 156.676  0.00  0.00    +0.000 A 
ATOM     75  CD1 TYR B   9     130.231 151.852 155.844  0.00  0.00    +0.000 A 
ATOM     76  CD2 TYR B   9     129.033 149.829 156.120  0.00  0.00    +0.000 A 
ATOM     77  CE1 TYR B   9     129.940 151.848 154.507  0.00  0.00    +0.000 A 
ATOM     78  CE2 TYR B   9     128.735 149.817 154.785  0.00  0.00    +0.000 A 
ATOM     79  CZ  TYR B   9     129.191 150.827 153.982  0.00  0.00    +0.000 A 
ATOM     80  OH  TYR B   9     128.894 150.815 152.642  0.00  0.00    +0.000 OA
ATOM     81  HH  TYR B   9     129.364 151.507 152.168  0.00  0.00    +0.000 HD
ATOM     82  N   ILE B  10     132.914 152.109 158.351  0.00  0.00    +0.000 N 
ATOM     83  H   ILE B  10     132.420 152.426 159.178  0.00  0.00    +0.000 HD
ATOM     84  CA  ILE B  10     133.923 152.947 157.722  0.00  0.00    +0.000 C 
ATOM     85  C   ILE B  10     135.324 152.471 158.059  0.00  0.00    +0.000 C 
ATOM     86  O   ILE B  10     136.184 152.372 157.184  0.00  0.00    +0.000 OA
ATOM     87  CB  ILE B  10     133.713 154.419 158.119  0.00  0.00    +0.000 C 
ATOM     88  CG1 ILE B  10     132.631 155.044 157.248  0.00  0.00    +0.000 C 
ATOM     89  CG2 ILE B  10     134.988 155.193 157.964  0.00  0.00    +0.000 C 
ATOM     90  CD1 ILE B  10     132.075 156.308 157.811  0.00  0.00    +0.000 C 
ATOM     91  N   LEU B  11     135.583 152.154 159.321  0.00  0.00    +0.000 N 
ATOM     92  H   LEU B  11     134.883 152.302 160.037  0.00  0.00    +0.000 HD
ATOM     93  CA  LEU B  11     136.931 151.756 159.699  0.00  0.00    +0.000 C 
ATOM     94  C   LEU B  11     137.183 150.279 159.425  0.00  0.00    +0.000 C 
ATOM     95  O   LEU B  11     138.068 149.929 158.642  0.00  0.00    +0.000 OA
ATOM     96  CB  LEU B  11     137.181 152.082 161.168  0.00  0.00    +0.000 C 
ATOM     97  CG  LEU B  11     138.530 151.625 161.706  0.00  0.00    +0.000 C 
ATOM     98  CD1 LEU B  11     139.596 152.600 161.295  0.00  0.00    +0.000 C 
ATOM     99  CD2 LEU B  11     138.475 151.510 163.205  0.00  0.00    +0.000 C 
ATOM    100  N   LEU B  12     136.409 149.394 160.053  0.00  0.00    +0.000 N 
ATOM    101  H   LEU B  12     135.671 149.725 160.661  0.00  0.00    +0.000 HD
ATOM    102  CA  LEU B  12     136.782 147.982 160.061  0.00  0.00    +0.000 C 
ATOM    103  C   LEU B  12     136.703 147.339 158.685  0.00  0.00    +0.000 C 
ATOM    104  O   LEU B  12     137.581 146.555 158.331  0.00  0.00    +0.000 OA
ATOM    105  CB  LEU B  12     135.928 147.199 161.043  0.00  0.00    +0.000 C 
ATOM    106  CG  LEU B  12     136.390 147.279 162.484  0.00  0.00    +0.000 C 
ATOM    107  CD1 LEU B  12     135.434 146.500 163.329  0.00  0.00    +0.000 C 
ATOM    108  CD2 LEU B  12     137.772 146.705 162.589  0.00  0.00    +0.000 C 
ATOM    109  N   NME B  13     135.651 147.597 157.912  0.00  0.00    +0.000 N 
ATOM    110  H   NME B  13     134.936 148.244 158.228  0.00  0.00    +0.000 HD
ATOM    111  C   NME B  13     135.577 146.952 156.604  0.00  0.00    +0.000 C 
TER 
REMARK  Name = /home/xianyang/aimnet2_score_pipelines/work/L1234-fixed-receptor-eint-20260921/L2/Q8NER1/prepared.pdb
REMARK                            x       y       z     vdW  Elec       q    Type
REMARK                         _______ _______ _______ _____ _____    ______ ____
ATOM      1  CH3 ACE C   1     162.863 158.075 170.605  0.00  0.00    +0.000 C 
ATOM      2  C   ACE C   1     163.292 156.635 170.825  0.00  0.00    +0.000 C 
ATOM      3  O   ACE C   1     163.802 156.258 171.881  0.00  0.00    +0.000 OA
ATOM      4  N   ASN C   2     163.053 155.817 169.801  0.00  0.00    +0.000 N 
ATOM      5  H   ASN C   2     162.703 156.220 168.946  0.00  0.00    +0.000 HD
ATOM      6  CA  ASN C   2     163.448 154.412 169.783  0.00  0.00    +0.000 C 
ATOM      7  C   ASN C   2     162.788 153.612 170.894  0.00  0.00    +0.000 C 
ATOM      8  O   ASN C   2     163.243 152.514 171.223  0.00  0.00    +0.000 OA
ATOM      9  CB  ASN C   2     164.969 154.263 169.871  0.00  0.00    +0.000 C 
ATOM     10  CG  ASN C   2     165.688 155.038 168.797  0.00  0.00    +0.000 C 
ATOM     11  OD1 ASN C   2     166.377 156.015 169.080  0.00  0.00    +0.000 OA
ATOM     12  ND2 ASN C   2     165.532 154.610 167.552  0.00  0.00    +0.000 N 
ATOM     13 HD21 ASN C   2     166.031 155.102 166.839  0.00  0.00    +0.000 HD
ATOM     14 HD22 ASN C   2     164.937 153.815 167.362  0.00  0.00    +0.000 HD
ATOM     15  N   ARG C   3     161.712 154.142 171.474  0.00  0.00    +0.000 N 
ATOM     16  H   ARG C   3     161.456 155.082 171.217  0.00  0.00    +0.000 HD
ATOM     17  CA  ARG C   3     161.103 153.508 172.636  0.00  0.00    +0.000 C 
ATOM     18  C   ARG C   3     160.612 152.104 172.323  0.00  0.00    +0.000 C 
ATOM     19  O   ARG C   3     160.701 151.214 173.174  0.00  0.00    +0.000 OA
ATOM     20  CB  ARG C   3     159.957 154.371 173.146  0.00  0.00    +0.000 C 
ATOM     21  CG  ARG C   3     159.413 153.947 174.483  0.00  0.00    +0.000 C 
ATOM     22  CD  ARG C   3     158.580 155.057 175.072  0.00  0.00    +0.000 C 
ATOM     23  NE  ARG C   3     157.427 154.543 175.793  0.00  0.00    +0.000 N 
ATOM     24  HE  ARG C   3     157.589 154.063 176.663  0.00  0.00    +0.000 HD
ATOM     25  CZ  ARG C   3     156.175 154.707 175.389  0.00  0.00    +0.000 C 
ATOM     26  NH1 ARG C   3     155.926 155.369 174.269  0.00  0.00    +0.000 N 
ATOM     27 HH11 ARG C   3     154.981 155.660 174.063  0.00  0.00    +0.000 HD
ATOM     28 HH12 ARG C   3     156.674 155.809 173.771  0.00  0.00    +0.000 HD
ATOM     29  NH2 ARG C   3     155.175 154.209 176.100  0.00  0.00    +0.000 N 
ATOM     30 HH21 ARG C   3     155.349 153.755 176.977  0.00  0.00    +0.000 HD
ATOM     31 HH22 ARG C   3     154.228 154.405 175.816  0.00  0.00    +0.000 HD
ATOM     32  N   HIS C   4     160.092 151.886 171.119  0.00  0.00    +0.000 N 
ATOM     33  H   HIS C   4     160.049 152.637 170.453  0.00  0.00    +0.000 HD
ATOM     34  CA  HIS C   4     159.624 150.560 170.742  0.00  0.00    +0.000 C 
ATOM     35  C   HIS C   4     160.782 149.634 170.405  0.00  0.00    +0.000 C 
ATOM     36  O   HIS C   4     160.730 148.437 170.698  0.00  0.00    +0.000 OA
ATOM     37  CB  HIS C   4     158.671 150.669 169.557  0.00  0.00    +0.000 C 
ATOM     38  CG  HIS C   4     157.662 151.760 169.703  0.00  0.00    +0.000 A 
ATOM     39  ND1 HIS C   4     157.002 152.008 170.887  0.00  0.00    +0.000 N 
ATOM     40  HD1 HIS C   4     157.101 151.458 171.726  0.00  0.00    +0.000 HD
ATOM     41  CD2 HIS C   4     157.209 152.680 168.820  0.00  0.00    +0.000 A 
ATOM     42  CE1 HIS C   4     156.180 153.028 170.725  0.00  0.00    +0.000 A 
ATOM     43  NE2 HIS C   4     156.287 153.455 169.480  0.00  0.00    +0.000 NA
ATOM     44  N   ASP C   5     161.835 150.173 169.794  0.00  0.00    +0.000 N 
ATOM     45  H   ASP C   5     161.843 151.153 169.570  0.00  0.00    +0.000 HD
ATOM     46  CA  ASP C   5     162.921 149.345 169.292  0.00  0.00    +0.000 C 
ATOM     47  C   ASP C   5     163.770 148.757 170.406  0.00  0.00    +0.000 C 
ATOM     48  O   ASP C   5     164.339 147.674 170.231  0.00  0.00    +0.000 OA
ATOM     49  CB  ASP C   5     163.800 150.173 168.364  0.00  0.00    +0.000 C 
ATOM     50  CG  ASP C   5     162.994 150.919 167.331  0.00  0.00    +0.000 C 
ATOM     51  OD1 ASP C   5     161.985 150.363 166.854  0.00  0.00    +0.000 OA
ATOM     52  OD2 ASP C   5     163.357 152.067 167.006  0.00  0.00    +0.000 OA
ATOM     53  N   NME C   6     163.849 149.432 171.547  0.00  0.00    +0.000 N 
ATOM     54  H   NME C   6     163.357 150.314 171.611  0.00  0.00    +0.000 HD
ATOM     55  C   NME C   6     164.794 149.071 172.591  0.00  0.00    +0.000 C 
TER 
REMARK  Name = /home/xianyang/aimnet2_score_pipelines/work/L1234-fixed-receptor-eint-20260921/L2/Q8NER1/prepared.pdb
REMARK                            x       y       z     vdW  Elec       q    Type
REMARK                         _______ _______ _______ _____ _____    ______ ____
ATOM      1  CH3 ACE D   1     148.062 161.435 179.420  0.00  0.00    +0.000 C 
ATOM      2  C   ACE D   1     147.128 161.211 178.238  0.00  0.00    +0.000 C 
ATOM      3  O   ACE D   1     146.484 160.162 178.131  0.00  0.00    +0.000 OA
ATOM      4  N   PHE D   2     147.040 162.186 177.341  0.00  0.00    +0.000 N 
ATOM      5  H   PHE D   2     147.558 163.037 177.488  0.00  0.00    +0.000 HD
ATOM      6  CA  PHE D   2     146.084 162.122 176.246  0.00  0.00    +0.000 C 
ATOM      7  C   PHE D   2     146.685 161.617 174.943  0.00  0.00    +0.000 C 
ATOM      8  O   PHE D   2     145.985 161.597 173.927  0.00  0.00    +0.000 OA
ATOM      9  CB  PHE D   2     145.455 163.497 176.018  0.00  0.00    +0.000 C 
ATOM     10  CG  PHE D   2     144.414 163.857 177.033  0.00  0.00    +0.000 A 
ATOM     11  CD1 PHE D   2     143.091 163.507 176.838  0.00  0.00    +0.000 A 
ATOM     12  CD2 PHE D   2     144.759 164.539 178.186  0.00  0.00    +0.000 A 
ATOM     13  CE1 PHE D   2     142.129 163.833 177.772  0.00  0.00    +0.000 A 
ATOM     14  CE2 PHE D   2     143.802 164.868 179.124  0.00  0.00    +0.000 A 
ATOM     15  CZ  PHE D   2     142.485 164.514 178.916  0.00  0.00    +0.000 A 
ATOM     16  N   VAL D   3     147.950 161.212 174.936  0.00  0.00    +0.000 N 
ATOM     17  H   VAL D   3     148.494 161.283 175.779  0.00  0.00    +0.000 HD
ATOM     18  CA  VAL D   3     148.599 160.827 173.691  0.00  0.00    +0.000 C 
ATOM     19  C   VAL D   3     149.149 159.411 173.801  0.00  0.00    +0.000 C 
ATOM     20  O   VAL D   3     149.332 158.722 172.790  0.00  0.00    +0.000 OA
ATOM     21  CB  VAL D   3     149.698 161.845 173.325  0.00  0.00    +0.000 C 
ATOM     22  CG1 VAL D   3     150.582 161.341 172.196  0.00  0.00    +0.000 C 
ATOM     23  CG2 VAL D   3     149.067 163.170 172.925  0.00  0.00    +0.000 C 
ATOM     24  N   ASP D   4     149.378 158.941 175.022  0.00  0.00    +0.000 N 
ATOM     25  H   ASP D   4     149.237 159.541 175.809  0.00  0.00    +0.000 HD
ATOM     26  CA  ASP D   4     150.107 157.695 175.210  0.00  0.00    +0.000 C 
ATOM     27  C   ASP D   4     149.287 156.588 175.850  0.00  0.00    +0.000 C 
ATOM     28  O   ASP D   4     149.307 155.458 175.360  0.00  0.00    +0.000 OA
ATOM     29  CB  ASP D   4     151.363 157.955 176.045  0.00  0.00    +0.000 C 
ATOM     30  CG  ASP D   4     152.381 158.773 175.297  0.00  0.00    +0.000 C 
ATOM     31  OD1 ASP D   4     152.403 158.673 174.053  0.00  0.00    +0.000 OA
ATOM     32  OD2 ASP D   4     153.152 159.513 175.943  0.00  0.00    +0.000 OA
ATOM     33  N   SER D   5     148.582 156.867 176.943  0.00  0.00    +0.000 N 
ATOM     34  H   SER D   5     148.652 157.779 177.363  0.00  0.00    +0.000 HD
ATOM     35  CA  SER D   5     147.880 155.802 177.644  0.00  0.00    +0.000 C 
ATOM     36  C   SER D   5     146.800 155.183 176.770  0.00  0.00    +0.000 C 
ATOM     37  O   SER D   5     146.910 154.020 176.372  0.00  0.00    +0.000 OA
ATOM     38  CB  SER D   5     147.272 156.331 178.939  0.00  0.00    +0.000 C 
ATOM     39  OG  SER D   5     148.288 156.669 179.864  0.00  0.00    +0.000 OA
ATOM     40  HG  SER D   5     147.909 156.751 180.749  0.00  0.00    +0.000 HD
ATOM     41  N   TYR D   6     145.740 155.940 176.495  0.00  0.00    +0.000 N 
ATOM     42  H   TYR D   6     145.796 156.915 176.749  0.00  0.00    +0.000 HD
ATOM     43  CA  TYR D   6     144.700 155.552 175.551  0.00  0.00    +0.000 C 
ATOM     44  C   TYR D   6     143.940 154.306 175.981  0.00  0.00    +0.000 C 
ATOM     45  O   TYR D   6     142.985 153.912 175.311  0.00  0.00    +0.000 OA
ATOM     46  CB  TYR D   6     145.278 155.314 174.159  0.00  0.00    +0.000 C 
ATOM     47  CG  TYR D   6     145.518 156.548 173.344  0.00  0.00    +0.000 A 
ATOM     48  CD1 TYR D   6     144.733 157.673 173.508  0.00  0.00    +0.000 A 
ATOM     49  CD2 TYR D   6     146.514 156.579 172.386  0.00  0.00    +0.000 A 
ATOM     50  CE1 TYR D   6     144.948 158.803 172.755  0.00  0.00    +0.000 A 
ATOM     51  CE2 TYR D   6     146.736 157.699 171.628  0.00  0.00    +0.000 A 
ATOM     52  CZ  TYR D   6     145.952 158.811 171.816  0.00  0.00    +0.000 A 
ATOM     53  OH  TYR D   6     146.170 159.937 171.060  0.00  0.00    +0.000 OA
ATOM     54  HH  TYR D   6     145.939 160.721 171.570  0.00  0.00    +0.000 HD
ATOM     55  N   SER D   7     144.341 153.673 177.070  0.00  0.00    +0.000 N 
ATOM     56  H   SER D   7     145.300 153.803 177.356  0.00  0.00    +0.000 HD
ATOM     57  CA  SER D   7     143.583 152.554 177.611  0.00  0.00    +0.000 C 
ATOM     58  C   SER D   7     143.305 152.701 179.088  0.00  0.00    +0.000 C 
ATOM     59  O   SER D   7     142.212 152.366 179.540  0.00  0.00    +0.000 OA
ATOM     60  CB  SER D   7     144.314 151.241 177.381  0.00  0.00    +0.000 C 
ATOM     61  OG  SER D   7     145.404 151.129 178.269  0.00  0.00    +0.000 OA
ATOM     62  HG  SER D   7     145.093 151.012 179.180  0.00  0.00    +0.000 HD
ATOM     63  N   GLU D   8     144.271 153.190 179.858  0.00  0.00    +0.000 N 
ATOM     64  H   GLU D   8     145.209 153.294 179.502  0.00  0.00    +0.000 HD
ATOM     65  CA  GLU D   8     143.945 153.661 181.192  0.00  0.00    +0.000 C 
ATOM     66  C   GLU D   8     142.909 154.765 181.109  0.00  0.00    +0.000 C 
ATOM     67  O   GLU D   8     141.993 154.838 181.935  0.00  0.00    +0.000 OA
ATOM     68  CB  GLU D   8     145.206 154.148 181.895  0.00  0.00    +0.000 C 
ATOM     69  CG  GLU D   8     146.313 153.120 181.927  0.00  0.00    +0.000 C 
ATOM     70  CD  GLU D   8     145.953 151.907 182.755  0.00  0.00    +0.000 C 
ATOM     71  OE1 GLU D   8     145.214 152.062 183.747  0.00  0.00    +0.000 OA
ATOM     72  OE2 GLU D   8     146.405 150.796 182.412  0.00  0.00    +0.000 OA
ATOM     73  N   MET D   9     143.020 155.613 180.088  0.00  0.00    +0.000 N 
ATOM     74  H   MET D   9     143.802 155.523 179.463  0.00  0.00    +0.000 HD
ATOM     75  CA  MET D   9     142.028 156.655 179.870  0.00  0.00    +0.000 C 
ATOM     76  C   MET D   9     140.662 156.058 179.575  0.00  0.00    +0.000 C 
ATOM     77  O   MET D   9     139.647 156.535 180.083  0.00  0.00    +0.000 OA
ATOM     78  CB  MET D   9     142.472 157.565 178.731  0.00  0.00    +0.000 C 
ATOM     79  CG  MET D   9     141.699 158.858 178.650  0.00  0.00    +0.000 C 
ATOM     80  SD  MET D   9     141.647 159.723 180.230  0.00  0.00    +0.000 S 
ATOM     81  CE  MET D   9     140.280 160.852 179.965  0.00  0.00    +0.000 C 
ATOM     82  N   LEU D  10     140.613 155.000 178.766  0.00  0.00    +0.000 N 
ATOM     83  H   LEU D  10     141.461 154.586 178.419  0.00  0.00    +0.000 HD
ATOM     84  CA  LEU D  10     139.321 154.445 178.372  0.00  0.00    +0.000 C 
ATOM     85  C   LEU D  10     138.662 153.682 179.511  0.00  0.00    +0.000 C 
ATOM     86  O   LEU D  10     137.451 153.802 179.725  0.00  0.00    +0.000 OA
ATOM     87  CB  LEU D  10     139.491 153.551 177.154  0.00  0.00    +0.000 C 
ATOM     88  CG  LEU D  10     139.837 154.347 175.904  0.00  0.00    +0.000 C 
ATOM     89  CD1 LEU D  10     139.744 153.477 174.695  0.00  0.00    +0.000 C 
ATOM     90  CD2 LEU D  10     138.918 155.534 175.762  0.00  0.00    +0.000 C 
ATOM     91  N   PHE D  11     139.431 152.885 180.248  0.00  0.00    +0.000 N 
ATOM     92  H   PHE D  11     140.413 152.765 180.027  0.00  0.00    +0.000 HD
ATOM     93  CA  PHE D  11     138.870 152.224 181.418  0.00  0.00    +0.000 C 
ATOM     94  C   PHE D  11     138.425 153.246 182.453  0.00  0.00    +0.000 C 
ATOM     95  O   PHE D  11     137.360 153.102 183.069  0.00  0.00    +0.000 OA
ATOM     96  CB  PHE D  11     139.890 151.262 182.010  0.00  0.00    +0.000 C 
ATOM     97  CG  PHE D  11     139.948 149.942 181.312  0.00  0.00    +0.000 A 
ATOM     98  CD1 PHE D  11     139.216 148.873 181.773  0.00  0.00    +0.000 A 
ATOM     99  CD2 PHE D  11     140.737 149.767 180.200  0.00  0.00    +0.000 A 
ATOM    100  CE1 PHE D  11     139.268 147.660 181.136  0.00  0.00    +0.000 A 
ATOM    101  CE2 PHE D  11     140.791 148.555 179.563  0.00  0.00    +0.000 A 
ATOM    102  CZ  PHE D  11     140.054 147.502 180.033  0.00  0.00    +0.000 A 
ATOM    103  N   PHE D  12     139.216 154.300 182.640  0.00  0.00    +0.000 N 
ATOM    104  H   PHE D  12     140.118 154.363 182.179  0.00  0.00    +0.000 HD
ATOM    105  CA  PHE D  12     138.813 155.363 183.547  0.00  0.00    +0.000 C 
ATOM    106  C   PHE D  12     137.519 156.014 183.088  0.00  0.00    +0.000 C 
ATOM    107  O   PHE D  12     136.643 156.311 183.904  0.00  0.00    +0.000 OA
ATOM    108  CB  PHE D  12     139.918 156.402 183.653  0.00  0.00    +0.000 C 
ATOM    109  CG  PHE D  12     139.701 157.385 184.743  0.00  0.00    +0.000 A 
ATOM    110  CD1 PHE D  12     139.646 158.733 184.473  0.00  0.00    +0.000 A 
ATOM    111  CD2 PHE D  12     139.545 156.960 186.043  0.00  0.00    +0.000 A 
ATOM    112  CE1 PHE D  12     139.442 159.635 185.479  0.00  0.00    +0.000 A 
ATOM    113  CE2 PHE D  12     139.345 157.858 187.050  0.00  0.00    +0.000 A 
ATOM    114  CZ  PHE D  12     139.291 159.197 186.771  0.00  0.00    +0.000 A 
ATOM    115  N   LEU D  13     137.388 156.256 181.787  0.00  0.00    +0.000 N 
ATOM    116  H   LEU D  13     138.168 156.073 181.167  0.00  0.00    +0.000 HD
ATOM    117  CA  LEU D  13     136.185 156.879 181.257  0.00  0.00    +0.000 C 
ATOM    118  C   LEU D  13     134.970 155.992 181.468  0.00  0.00    +0.000 C 
ATOM    119  O   LEU D  13     133.883 156.479 181.799  0.00  0.00    +0.000 OA
ATOM    120  CB  LEU D  13     136.385 157.183 179.780  0.00  0.00    +0.000 C 
ATOM    121  CG  LEU D  13     135.318 158.026 179.112  0.00  0.00    +0.000 C 
ATOM    122  CD1 LEU D  13     135.548 159.472 179.456  0.00  0.00    +0.000 C 
ATOM    123  CD2 LEU D  13     135.389 157.826 177.621  0.00  0.00    +0.000 C 
ATOM    124  N   GLN D  14     135.132 154.687 181.277  0.00  0.00    +0.000 N 
ATOM    125  H   GLN D  14     136.033 154.331 180.978  0.00  0.00    +0.000 HD
ATOM    126  CA  GLN D  14     134.038 153.771 181.569  0.00  0.00    +0.000 C 
ATOM    127  C   GLN D  14     133.638 153.846 183.034  0.00  0.00    +0.000 C 
ATOM    128  O   GLN D  14     132.446 153.835 183.364  0.00  0.00    +0.000 OA
ATOM    129  CB  GLN D  14     134.429 152.348 181.205  0.00  0.00    +0.000 C 
ATOM    130  CG  GLN D  14     133.509 151.325 181.799  0.00  0.00    +0.000 C 
ATOM    131  CD  GLN D  14     134.076 149.941 181.728  0.00  0.00    +0.000 C 
ATOM    132  OE1 GLN D  14     135.178 149.738 181.231  0.00  0.00    +0.000 OA
ATOM    133  NE2 GLN D  14     133.330 148.974 182.231  0.00  0.00    +0.000 N 
ATOM    134 HE21 GLN D  14     133.711 148.046 182.197  0.00  0.00    +0.000 HD
ATOM    135 HE22 GLN D  14     132.428 149.183 182.619  0.00  0.00    +0.000 HD
ATOM    136  N   NME D  15     134.619 153.923 183.932  0.00  0.00    +0.000 N 
ATOM    137  H   NME D  15     135.587 153.944 183.628  0.00  0.00    +0.000 HD
ATOM    138  C   NME D  15     134.292 154.042 185.349  0.00  0.00    +0.000 C 
TER 
REMARK  Name = /home/xianyang/aimnet2_score_pipelines/work/L1234-fixed-receptor-eint-20260921/L2/Q8NER1/prepared.pdb
REMARK                            x       y       z     vdW  Elec       q    Type
REMARK                         _______ _______ _______ _____ _____    ______ ____
ATOM      1  CH3 ACE E   1     129.376 152.744 180.007  0.00  0.00    +0.000 C 
ATOM      2  C   ACE E   1     129.306 151.307 179.539  0.00  0.00    +0.000 C 
ATOM      3  O   ACE E   1     130.289 150.572 179.644  0.00  0.00    +0.000 OA
ATOM      4  N   LEU E   2     128.155 150.885 179.033  0.00  0.00    +0.000 N 
ATOM      5  H   LEU E   2     127.347 151.487 179.034  0.00  0.00    +0.000 HD
ATOM      6  CA  LEU E   2     128.065 149.523 178.544  0.00  0.00    +0.000 C 
ATOM      7  C   LEU E   2     128.837 149.366 177.246  0.00  0.00    +0.000 C 
ATOM      8  O   LEU E   2     129.671 148.465 177.128  0.00  0.00    +0.000 OA
ATOM      9  CB  LEU E   2     126.602 149.144 178.377  0.00  0.00    +0.000 C 
ATOM     10  CG  LEU E   2     126.294 147.716 177.993  0.00  0.00    +0.000 C 
ATOM     11  CD1 LEU E   2     127.012 146.799 178.929  0.00  0.00    +0.000 C 
ATOM     12  CD2 LEU E   2     124.812 147.524 178.131  0.00  0.00    +0.000 C 
ATOM     13  N   ALA E   3     128.644 150.286 176.301  0.00  0.00    +0.000 N 
ATOM     14  H   ALA E   3     127.945 150.998 176.431  0.00  0.00    +0.000 HD
ATOM     15  CA  ALA E   3     129.311 150.157 175.013  0.00  0.00    +0.000 C 
ATOM     16  C   ALA E   3     130.818 150.165 175.187  0.00  0.00    +0.000 C 
ATOM     17  O   ALA E   3     131.503 149.210 174.800  0.00  0.00    +0.000 OA
ATOM     18  CB  ALA E   3     128.874 151.280 174.082  0.00  0.00    +0.000 C 
ATOM     19  N   LEU E   4     131.339 151.199 175.851  0.00  0.00    +0.000 N 
ATOM     20  H   LEU E   4     130.737 151.940 176.167  0.00  0.00    +0.000 HD
ATOM     21  CA  LEU E   4     132.764 151.251 176.150  0.00  0.00    +0.000 C 
ATOM     22  C   LEU E   4     133.228 149.963 176.799  0.00  0.00    +0.000 C 
ATOM     23  O   LEU E   4     134.268 149.409 176.426  0.00  0.00    +0.000 OA
ATOM     24  CB  LEU E   4     133.078 152.435 177.052  0.00  0.00    +0.000 C 
ATOM     25  CG  LEU E   4     133.231 153.768 176.351  0.00  0.00    +0.000 C 
ATOM     26  CD1 LEU E   4     133.309 154.864 177.369  0.00  0.00    +0.000 C 
ATOM     27  CD2 LEU E   4     134.492 153.726 175.539  0.00  0.00    +0.000 C 
ATOM     28  N   GLY E   5     132.439 149.440 177.728  0.00  0.00    +0.000 N 
ATOM     29  H   GLY E   5     131.583 149.900 178.006  0.00  0.00    +0.000 HD
ATOM     30  CA  GLY E   5     132.858 148.257 178.432  0.00  0.00    +0.000 C 
ATOM     31  C   GLY E   5     133.232 147.183 177.447  0.00  0.00    +0.000 C 
ATOM     32  O   GLY E   5     134.364 146.698 177.453  0.00  0.00    +0.000 OA
ATOM     33  N   TRP E   6     132.325 146.872 176.527  0.00  0.00    +0.000 N 
ATOM     34  H   TRP E   6     131.430 147.348 176.512  0.00  0.00    +0.000 HD
ATOM     35  CA  TRP E   6     132.616 145.792 175.599  0.00  0.00    +0.000 C 
ATOM     36  C   TRP E   6     133.781 146.159 174.703  0.00  0.00    +0.000 C 
ATOM     37  O   TRP E   6     134.686 145.347 174.485  0.00  0.00    +0.000 OA
ATOM     38  CB  TRP E   6     131.381 145.458 174.783  0.00  0.00    +0.000 C 
ATOM     39  CG  TRP E   6     130.429 144.650 175.554  0.00  0.00    +0.000 A 
ATOM     40  CD1 TRP E   6     129.264 145.066 176.095  0.00  0.00    +0.000 A 
ATOM     41  CD2 TRP E   6     130.572 143.280 175.911  0.00  0.00    +0.000 A 
ATOM     42  NE1 TRP E   6     128.656 144.038 176.758  0.00  0.00    +0.000 N 
ATOM     43  HE1 TRP E   6     127.763 144.101 177.222  0.00  0.00    +0.000 HD
ATOM     44  CE2 TRP E   6     129.445 142.926 176.658  0.00  0.00    +0.000 A 
ATOM     45  CE3 TRP E   6     131.541 142.314 175.662  0.00  0.00    +0.000 A 
ATOM     46  CZ2 TRP E   6     129.261 141.653 177.161  0.00  0.00    +0.000 A 
ATOM     47  CZ3 TRP E   6     131.358 141.053 176.163  0.00  0.00    +0.000 A 
ATOM     48  CH2 TRP E   6     130.228 140.731 176.903  0.00  0.00    +0.000 A 
ATOM     49  N   THR E   7     133.819 147.401 174.236  0.00  0.00    +0.000 N 
ATOM     50  H   THR E   7     133.108 148.075 174.509  0.00  0.00    +0.000 HD
ATOM     51  CA  THR E   7     134.898 147.761 173.337  0.00  0.00    +0.000 C 
ATOM     52  C   THR E   7     136.211 147.951 174.065  0.00  0.00    +0.000 C 
ATOM     53  O   THR E   7     137.195 148.339 173.432  0.00  0.00    +0.000 OA
ATOM     54  CB  THR E   7     134.552 149.021 172.560  0.00  0.00    +0.000 C 
ATOM     55  OG1 THR E   7     135.556 149.248 171.574  0.00  0.00    +0.000 OA
ATOM     56  HG1 THR E   7     136.394 149.251 172.056  0.00  0.00    +0.000 HD
ATOM     57  CG2 THR E   7     134.533 150.191 173.459  0.00  0.00    +0.000 C 
ATOM     58  N   ASN E   8     136.255 147.701 175.370  0.00  0.00    +0.000 N 
ATOM     59  H   ASN E   8     135.403 147.555 175.903  0.00  0.00    +0.000 HD
ATOM     60  CA  ASN E   8     137.539 147.673 176.043  0.00  0.00    +0.000 C 
ATOM     61  C   ASN E   8     138.145 146.284 176.069  0.00  0.00    +0.000 C 
ATOM     62  O   ASN E   8     139.314 146.149 176.433  0.00  0.00    +0.000 OA
ATOM     63  CB  ASN E   8     137.405 148.205 177.463  0.00  0.00    +0.000 C 
ATOM     64  CG  ASN E   8     137.387 149.706 177.510  0.00  0.00    +0.000 C 
ATOM     65  OD1 ASN E   8     137.916 150.368 176.625  0.00  0.00    +0.000 OA
ATOM     66  ND2 ASN E   8     136.773 150.258 178.541  0.00  0.00    +0.000 N 
ATOM     67 HD21 ASN E   8     136.355 149.698 179.270  0.00  0.00    +0.000 HD
ATOM     68 HD22 ASN E   8     136.768 151.259 178.584  0.00  0.00    +0.000 HD
ATOM     69  N   MET E   9     137.398 145.255 175.674  0.00  0.00    +0.000 N 
ATOM     70  H   MET E   9     136.424 145.393 175.414  0.00  0.00    +0.000 HD
ATOM     71  CA  MET E   9     137.998 143.931 175.626  0.00  0.00    +0.000 C 
ATOM     72  C   MET E   9     139.108 143.833 174.599  0.00  0.00    +0.000 C 
ATOM     73  O   MET E   9     139.933 142.921 174.690  0.00  0.00    +0.000 OA
ATOM     74  CB  MET E   9     136.951 142.870 175.343  0.00  0.00    +0.000 C 
ATOM     75  CG  MET E   9     135.960 142.688 176.444  0.00  0.00    +0.000 C 
ATOM     76  SD  MET E   9     134.761 141.479 175.918  0.00  0.00    +0.000 S 
ATOM     77  CE  MET E   9     135.768 140.012 175.945  0.00  0.00    +0.000 C 
ATOM     78  N   LEU E  10     139.167 144.751 173.635  0.00  0.00    +0.000 N 
ATOM     79  H   LEU E  10     138.465 145.475 173.577  0.00  0.00    +0.000 HD
ATOM     80  CA  LEU E  10     140.310 144.763 172.735  0.00  0.00    +0.000 C 
ATOM     81  C   LEU E  10     141.611 144.919 173.495  0.00  0.00    +0.000 C 
ATOM     82  O   LEU E  10     142.661 144.475 173.020  0.00  0.00    +0.000 OA
ATOM     83  CB  LEU E  10     140.178 145.864 171.689  0.00  0.00    +0.000 C 
ATOM     84  CG  LEU E  10     139.241 145.596 170.515  0.00  0.00    +0.000 C 
ATOM     85  CD1 LEU E  10     137.779 145.618 170.903  0.00  0.00    +0.000 C 
ATOM     86  CD2 LEU E  10     139.527 146.601 169.425  0.00  0.00    +0.000 C 
ATOM     87  N   TYR E  11     141.562 145.518 174.683  0.00  0.00    +0.000 N 
ATOM     88  H   TYR E  11     140.682 145.858 175.055  0.00  0.00    +0.000 HD
ATOM     89  CA  TYR E  11     142.749 145.567 175.521  0.00  0.00    +0.000 C 
ATOM     90  C   TYR E  11     143.364 144.186 175.664  0.00  0.00    +0.000 C 
ATOM     91  O   TYR E  11     144.560 144.002 175.425  0.00  0.00    +0.000 OA
ATOM     92  CB  TYR E  11     142.392 146.142 176.888  0.00  0.00    +0.000 C 
ATOM     93  CG  TYR E  11     143.495 146.073 177.910  0.00  0.00    +0.000 A 
ATOM     94  CD1 TYR E  11     143.692 144.937 178.670  0.00  0.00    +0.000 A 
ATOM     95  CD2 TYR E  11     144.318 147.153 178.136  0.00  0.00    +0.000 A 
ATOM     96  CE1 TYR E  11     144.687 144.873 179.600  0.00  0.00    +0.000 A 
ATOM     97  CE2 TYR E  11     145.312 147.098 179.073  0.00  0.00    +0.000 A 
ATOM     98  CZ  TYR E  11     145.494 145.954 179.798  0.00  0.00    +0.000 A 
ATOM     99  OH  TYR E  11     146.492 145.890 180.734  0.00  0.00    +0.000 OA
ATOM    100  HH  TYR E  11     146.616 146.728 181.193  0.00  0.00    +0.000 HD
ATOM    101  N   TYR E  12     142.554 143.186 175.985  0.00  0.00    +0.000 N 
ATOM    102  H   TYR E  12     141.555 143.325 176.047  0.00  0.00    +0.000 HD
ATOM    103  CA  TYR E  12     143.133 141.884 176.270  0.00  0.00    +0.000 C 
ATOM    104  C   TYR E  12     143.695 141.209 175.034  0.00  0.00    +0.000 C 
ATOM    105  O   TYR E  12     144.430 140.224 175.167  0.00  0.00    +0.000 OA
ATOM    106  CB  TYR E  12     142.097 141.017 176.961  0.00  0.00    +0.000 C 
ATOM    107  CG  TYR E  12     141.774 141.582 178.311  0.00  0.00    +0.000 A 
ATOM    108  CD1 TYR E  12     142.496 141.213 179.424  0.00  0.00    +0.000 A 
ATOM    109  CD2 TYR E  12     140.785 142.530 178.462  0.00  0.00    +0.000 A 
ATOM    110  CE1 TYR E  12     142.220 141.744 180.647  0.00  0.00    +0.000 A 
ATOM    111  CE2 TYR E  12     140.505 143.067 179.679  0.00  0.00    +0.000 A 
ATOM    112  CZ  TYR E  12     141.224 142.672 180.768  0.00  0.00    +0.000 A 
ATOM    113  OH  TYR E  12     140.941 143.211 181.995  0.00  0.00    +0.000 OA
ATOM    114  HH  TYR E  12     141.656 143.054 182.630  0.00  0.00    +0.000 HD
ATOM    115  N   THR E  13     143.433 141.749 173.845  0.00  0.00    +0.000 N 
ATOM    116  H   THR E  13     142.851 142.574 173.786  0.00  0.00    +0.000 HD
ATOM    117  CA  THR E  13     144.105 141.232 172.665  0.00  0.00    +0.000 C 
ATOM    118  C   THR E  13     145.614 141.368 172.763  0.00  0.00    +0.000 C 
ATOM    119  O   THR E  13     146.320 140.770 171.950  0.00  0.00    +0.000 OA
ATOM    120  CB  THR E  13     143.613 141.947 171.415  0.00  0.00    +0.000 C 
ATOM    121  OG1 THR E  13     143.741 143.358 171.593  0.00  0.00    +0.000 OA
ATOM    122  HG1 THR E  13     143.144 143.787 172.278  0.00  0.00    +0.000 HD
ATOM    123  CG2 THR E  13     142.166 141.620 171.168  0.00  0.00    +0.000 C 
ATOM    124  N   ARG E  14     146.120 142.133 173.731  0.00  0.00    +0.000 N 
ATOM    125  H   ARG E  14     145.488 142.690 174.298  0.00  0.00    +0.000 HD
ATOM    126  CA  ARG E  14     147.552 142.172 173.993  0.00  0.00    +0.000 C 
ATOM    127  C   ARG E  14     148.133 140.789 174.197  0.00  0.00    +0.000 C 
ATOM    128  O   ARG E  14     149.274 140.546 173.799  0.00  0.00    +0.000 OA
ATOM    129  CB  ARG E  14     147.830 142.963 175.257  0.00  0.00    +0.000 C 
ATOM    130  CG  ARG E  14     147.503 144.405 175.204  0.00  0.00    +0.000 C 
ATOM    131  CD  ARG E  14     147.608 144.892 176.600  0.00  0.00    +0.000 C 
ATOM    132  NE  ARG E  14     147.114 146.242 176.771  0.00  0.00    +0.000 N 
ATOM    133  HE  ARG E  14     146.131 146.344 176.975  0.00  0.00    +0.000 HD
ATOM    134  CZ  ARG E  14     147.869 147.325 176.758  0.00  0.00    +0.000 C 
ATOM    135  NH1 ARG E  14     149.175 147.224 176.593  0.00  0.00    +0.000 N 
ATOM    136 HH11 ARG E  14     149.594 146.306 176.624  0.00  0.00    +0.000 HD
ATOM    137 HH12 ARG E  14     149.745 148.046 176.571  0.00  0.00    +0.000 HD
ATOM    138  NH2 ARG E  14     147.317 148.505 176.954  0.00  0.00    +0.000 N 
ATOM    139 HH21 ARG E  14     147.880 149.336 176.991  0.00  0.00    +0.000 HD
ATOM    140 HH22 ARG E  14     146.326 148.585 177.076  0.00  0.00    +0.000 HD
ATOM    141  N   GLY E  15     147.383 139.881 174.816  0.00  0.00    +0.000 N 
ATOM    142  H   GLY E  15     146.425 140.100 175.066  0.00  0.00    +0.000 HD
ATOM    143  CA  GLY E  15     147.969 138.617 175.208  0.00  0.00    +0.000 C 
ATOM    144  C   GLY E  15     148.207 137.651 174.074  0.00  0.00    +0.000 C 
ATOM    145  O   GLY E  15     148.853 136.622 174.291  0.00  0.00    +0.000 OA
ATOM    146  N   NME E  16     147.710 137.949 172.882  0.00  0.00    +0.000 N 
ATOM    147  H   NME E  16     147.225 138.829 172.761  0.00  0.00    +0.000 HD
ATOM    148  C   NME E  16     147.849 137.069 171.735  0.00  0.00    +0.000 C 
TER 
REMARK  Name = /home/xianyang/aimnet2_score_pipelines/work/L1234-fixed-receptor-eint-20260921/L2/Q8NER1/prepared.pdb
REMARK                            x       y       z     vdW  Elec       q    Type
REMARK                         _______ _______ _______ _____ _____    ______ ____
ATOM      1  CH3 ACE F   1     149.159 143.351 166.265  0.00  0.00    +0.000 C 
ATOM      2  C   ACE F   1     147.974 143.934 165.517  0.00  0.00    +0.000 C 
ATOM      3  O   ACE F   1     148.002 145.089 165.071  0.00  0.00    +0.000 OA
ATOM      4  N   TYR F   2     146.909 143.148 165.375  0.00  0.00    +0.000 N 
ATOM      5  H   TYR F   2     146.944 142.198 165.708  0.00  0.00    +0.000 HD
ATOM      6  CA  TYR F   2     145.707 143.636 164.714  0.00  0.00    +0.000 C 
ATOM      7  C   TYR F   2     145.146 144.860 165.428  0.00  0.00    +0.000 C 
ATOM      8  O   TYR F   2     144.833 145.876 164.799  0.00  0.00    +0.000 OA
ATOM      9  CB  TYR F   2     144.679 142.513 164.665  0.00  0.00    +0.000 C 
ATOM     10  CG  TYR F   2     143.450 142.845 163.884  0.00  0.00    +0.000 A 
ATOM     11  CD1 TYR F   2     142.196 142.526 164.360  0.00  0.00    +0.000 A 
ATOM     12  CD2 TYR F   2     143.543 143.468 162.664  0.00  0.00    +0.000 A 
ATOM     13  CE1 TYR F   2     141.075 142.828 163.641  0.00  0.00    +0.000 A 
ATOM     14  CE2 TYR F   2     142.430 143.767 161.946  0.00  0.00    +0.000 A 
ATOM     15  CZ  TYR F   2     141.199 143.451 162.433  0.00  0.00    +0.000 A 
ATOM     16  OH  TYR F   2     140.086 143.763 161.695  0.00  0.00    +0.000 OA
ATOM     17  HH  TYR F   2     140.301 144.191 160.864  0.00  0.00    +0.000 HD
ATOM     18  N   ALA F   3     145.021 144.783 166.751  0.00  0.00    +0.000 N 
ATOM     19  H   ALA F   3     145.247 143.927 167.230  0.00  0.00    +0.000 HD
ATOM     20  CA  ALA F   3     144.482 145.902 167.513  0.00  0.00    +0.000 C 
ATOM     21  C   ALA F   3     145.399 147.114 167.462  0.00  0.00    +0.000 C 
ATOM     22  O   ALA F   3     144.923 148.257 167.449  0.00  0.00    +0.000 OA
ATOM     23  CB  ALA F   3     144.242 145.482 168.957  0.00  0.00    +0.000 C 
ATOM     24  N   VAL F   4     146.710 146.892 167.434  0.00  0.00    +0.000 N 
ATOM     25  H   VAL F   4     147.062 145.949 167.434  0.00  0.00    +0.000 HD
ATOM     26  CA  VAL F   4     147.628 148.014 167.286  0.00  0.00    +0.000 C 
ATOM     27  C   VAL F   4     147.402 148.706 165.951  0.00  0.00    +0.000 C 
ATOM     28  O   VAL F   4     147.395 149.940 165.868  0.00  0.00    +0.000 OA
ATOM     29  CB  VAL F   4     149.079 147.539 167.443  0.00  0.00    +0.000 C 
ATOM     30  CG1 VAL F   4     150.025 148.621 167.006  0.00  0.00    +0.000 C 
ATOM     31  CG2 VAL F   4     149.342 147.161 168.873  0.00  0.00    +0.000 C 
ATOM     32  N   MET F   5     147.202 147.929 164.887  0.00  0.00    +0.000 N 
ATOM     33  H   MET F   5     147.242 146.919 164.976  0.00  0.00    +0.000 HD
ATOM     34  CA  MET F   5     146.894 148.538 163.598  0.00  0.00    +0.000 C 
ATOM     35  C   MET F   5     145.575 149.292 163.641  0.00  0.00    +0.000 C 
ATOM     36  O   MET F   5     145.434 150.338 163.003  0.00  0.00    +0.000 OA
ATOM     37  CB  MET F   5     146.866 147.487 162.494  0.00  0.00    +0.000 C 
ATOM     38  CG  MET F   5     148.206 146.875 162.191  0.00  0.00    +0.000 C 
ATOM     39  SD  MET F   5     148.081 145.649 160.888  0.00  0.00    +0.000 S 
ATOM     40  CE  MET F   5     149.762 145.057 160.829  0.00  0.00    +0.000 C 
ATOM     41  N   ILE F   6     144.589 148.770 164.366  0.00  0.00    +0.000 N 
ATOM     42  H   ILE F   6     144.718 147.869 164.812  0.00  0.00    +0.000 HD
ATOM     43  CA  ILE F   6     143.317 149.478 164.487  0.00  0.00    +0.000 C 
ATOM     44  C   ILE F   6     143.535 150.850 165.103  0.00  0.00    +0.000 C 
ATOM     45  O   ILE F   6     143.017 151.865 164.618  0.00  0.00    +0.000 OA
ATOM     46  CB  ILE F   6     142.319 148.653 165.312  0.00  0.00    +0.000 C 
ATOM     47  CG1 ILE F   6     141.819 147.465 164.508  0.00  0.00    +0.000 C 
ATOM     48  CG2 ILE F   6     141.164 149.510 165.741  0.00  0.00    +0.000 C 
ATOM     49  CD1 ILE F   6     140.866 146.606 165.268  0.00  0.00    +0.000 C 
ATOM     50  N   GLU F   7     144.304 150.897 166.189  0.00  0.00    +0.000 N 
ATOM     51  H   GLU F   7     144.680 150.039 166.584  0.00  0.00    +0.000 HD
ATOM     52  CA  GLU F   7     144.666 152.179 166.787  0.00  0.00    +0.000 C 
ATOM     53  C   GLU F   7     145.340 153.097 165.779  0.00  0.00    +0.000 C 
ATOM     54  O   GLU F   7     144.987 154.280 165.665  0.00  0.00    +0.000 OA
ATOM     55  CB  GLU F   7     145.607 151.959 167.957  0.00  0.00    +0.000 C 
ATOM     56  CG  GLU F   7     146.290 153.227 168.379  0.00  0.00    +0.000 C 
ATOM     57  CD  GLU F   7     147.543 152.965 169.172  0.00  0.00    +0.000 C 
ATOM     58  OE1 GLU F   7     147.843 151.784 169.435  0.00  0.00    +0.000 OA
ATOM     59  OE2 GLU F   7     148.248 153.936 169.497  0.00  0.00    +0.000 OA
ATOM     60  N   LYS F   8     146.340 152.578 165.068  0.00  0.00    +0.000 N 
ATOM     61  H   LYS F   8     146.599 151.606 165.226  0.00  0.00    +0.000 HD
ATOM     62  CA  LYS F   8     147.086 153.413 164.135  0.00  0.00    +0.000 C 
ATOM     63  C   LYS F   8     146.177 153.994 163.065  0.00  0.00    +0.000 C 
ATOM     64  O   LYS F   8     146.324 155.159 162.693  0.00  0.00    +0.000 OA
ATOM     65  CB  LYS F   8     148.221 152.621 163.493  0.00  0.00    +0.000 C 
ATOM     66  CG  LYS F   8     149.277 152.061 164.437  0.00  0.00    +0.000 C 
ATOM     67  CD  LYS F   8     150.179 153.131 165.040  0.00  0.00    +0.000 C 
ATOM     68  CE  LYS F   8     149.698 153.622 166.390  0.00  0.00    +0.000 C 
ATOM     69  NZ  LYS F   8     150.661 154.584 166.991  0.00  0.00    +0.000 N 
ATOM     70  HZ1 LYS F   8     151.576 154.169 167.090  0.00  0.00    +0.000 HD
ATOM     71  HZ2 LYS F   8     150.695 155.455 166.493  0.00  0.00    +0.000 HD
ATOM     72  HZ3 LYS F   8     150.319 154.770 167.937  0.00  0.00    +0.000 HD
ATOM     73  N   MET F   9     145.241 153.202 162.544  0.00  0.00    +0.000 N 
ATOM     74  H   MET F   9     145.156 152.240 162.858  0.00  0.00    +0.000 HD
ATOM     75  CA  MET F   9     144.308 153.756 161.569  0.00  0.00    +0.000 C 
ATOM     76  C   MET F   9     143.436 154.831 162.179  0.00  0.00    +0.000 C 
ATOM     77  O   MET F   9     143.307 155.918 161.609  0.00  0.00    +0.000 OA
ATOM     78  CB  MET F   9     143.437 152.677 160.950  0.00  0.00    +0.000 C 
ATOM     79  CG  MET F   9     144.207 151.503 160.532  0.00  0.00    +0.000 C 
ATOM     80  SD  MET F   9     144.989 151.989 159.006  0.00  0.00    +0.000 S 
ATOM     81  CE  MET F   9     145.147 150.396 158.271  0.00  0.00    +0.000 C 
ATOM     82  N   ILE F  10     142.852 154.559 163.345  0.00  0.00    +0.000 N 
ATOM     83  H   ILE F  10     142.998 153.660 163.795  0.00  0.00    +0.000 HD
ATOM     84  CA  ILE F  10     141.971 155.544 163.959  0.00  0.00    +0.000 C 
ATOM     85  C   ILE F  10     142.692 156.870 164.114  0.00  0.00    +0.000 C 
ATOM     86  O   ILE F  10     142.110 157.939 163.902  0.00  0.00    +0.000 OA
ATOM     87  CB  ILE F  10     141.449 155.027 165.306  0.00  0.00    +0.000 C 
ATOM     88  CG1 ILE F  10     140.362 153.998 165.076  0.00  0.00    +0.000 C 
ATOM     89  CG2 ILE F  10     140.884 156.153 166.119  0.00  0.00    +0.000 C 
ATOM     90  CD1 ILE F  10     139.880 153.386 166.330  0.00  0.00    +0.000 C 
ATOM     91  N   LEU F  11     143.973 156.827 164.453  0.00  0.00    +0.000 N 
ATOM     92  H   LEU F  11     144.395 155.936 164.689  0.00  0.00    +0.000 HD
ATOM     93  CA  LEU F  11     144.691 158.073 164.681  0.00  0.00    +0.000 C 
ATOM     94  C   LEU F  11     145.216 158.720 163.405  0.00  0.00    +0.000 C 
ATOM     95  O   LEU F  11     145.140 159.945 163.274  0.00  0.00    +0.000 OA
ATOM     96  CB  LEU F  11     145.840 157.839 165.657  0.00  0.00    +0.000 C 
ATOM     97  CG  LEU F  11     145.327 157.442 167.037  0.00  0.00    +0.000 C 
ATOM     98  CD1 LEU F  11     146.475 157.219 167.997  0.00  0.00    +0.000 C 
ATOM     99  CD2 LEU F  11     144.369 158.491 167.560  0.00  0.00    +0.000 C 
ATOM    100  N   ARG F  12     145.739 157.946 162.456  0.00  0.00    +0.000 N 
ATOM    101  H   ARG F  12     145.682 156.939 162.569  0.00  0.00    +0.000 HD
ATOM    102  CA  ARG F  12     146.299 158.518 161.235  0.00  0.00    +0.000 C 
ATOM    103  C   ARG F  12     145.223 158.857 160.210  0.00  0.00    +0.000 C 
ATOM    104  O   ARG F  12     145.067 160.018 159.823  0.00  0.00    +0.000 OA
ATOM    105  CB  ARG F  12     147.308 157.556 160.598  0.00  0.00    +0.000 C 
ATOM    106  CG  ARG F  12     148.732 157.648 161.108  0.00  0.00    +0.000 C 
ATOM    107  CD  ARG F  12     149.022 156.559 162.111  0.00  0.00    +0.000 C 
ATOM    108  NE  ARG F  12     150.449 156.400 162.362  0.00  0.00    +0.000 N 
ATOM    109  HE  ARG F  12     150.991 155.925 161.657  0.00  0.00    +0.000 HD
ATOM    110  CZ  ARG F  12     151.082 156.907 163.412  0.00  0.00    +0.000 C 
ATOM    111  NH1 ARG F  12     150.413 157.611 164.313  0.00  0.00    +0.000 N 
ATOM    112 HH11 ARG F  12     150.915 158.095 165.041  0.00  0.00    +0.000 HD
ATOM    113 HH12 ARG F  12     149.454 157.876 164.117  0.00  0.00    +0.000 HD
ATOM    114  NH2 ARG F  12     152.383 156.709 163.563  0.00  0.00    +0.000 N 
ATOM    115 HH21 ARG F  12     152.912 157.292 164.185  0.00  0.00    +0.000 HD
ATOM    116 HH22 ARG F  12     152.880 156.128 162.914  0.00  0.00    +0.000 HD
ATOM    117  N   NME F  13     144.476 157.852 159.761  0.00  0.00    +0.000 N 
ATOM    118  H   NME F  13     144.459 156.986 160.282  0.00  0.00    +0.000 HD
ATOM    119  C   NME F  13     143.676 157.987 158.553  0.00  0.00    +0.000 C 
TER 
REMARK  Name = /home/xianyang/aimnet2_score_pipelines/work/L1234-fixed-receptor-eint-20260921/L2/Q8NER1/prepared.pdb
REMARK                            x       y       z     vdW  Elec       q    Type
REMARK                         _______ _______ _______ _____ _____    ______ ____
ATOM      1  CH3 ACE G   1     154.780 144.412 165.998  0.00  0.00    +0.000 C 
ATOM      2  C   ACE G   1     155.587 144.948 167.170  0.00  0.00    +0.000 C 
ATOM      3  O   ACE G   1     155.488 144.437 168.292  0.00  0.00    +0.000 OA
ATOM      4  N   ASN G   2     156.382 145.992 166.933  0.00  0.00    +0.000 N 
ATOM      5  H   ASN G   2     156.537 146.301 165.986  0.00  0.00    +0.000 HD
ATOM      6  CA  ASN G   2     157.165 146.574 168.017  0.00  0.00    +0.000 C 
ATOM      7  C   ASN G   2     156.267 147.153 169.100  0.00  0.00    +0.000 C 
ATOM      8  O   ASN G   2     156.522 146.963 170.295  0.00  0.00    +0.000 OA
ATOM      9  CB  ASN G   2     158.098 147.649 167.474  0.00  0.00    +0.000 C 
ATOM     10  CG  ASN G   2     159.288 147.068 166.759  0.00  0.00    +0.000 C 
ATOM     11  OD1 ASN G   2     159.524 145.863 166.806  0.00  0.00    +0.000 OA
ATOM     12  ND2 ASN G   2     160.053 147.921 166.094  0.00  0.00    +0.000 N 
ATOM     13 HD21 ASN G   2     160.011 148.918 166.254  0.00  0.00    +0.000 HD
ATOM     14 HD22 ASN G   2     160.914 147.547 165.735  0.00  0.00    +0.000 HD
ATOM     15  N   ILE G   3     155.214 147.865 168.704  0.00  0.00    +0.000 N 
ATOM     16  H   ILE G   3     155.068 148.027 167.721  0.00  0.00    +0.000 HD
ATOM     17  CA  ILE G   3     154.318 148.459 169.687  0.00  0.00    +0.000 C 
ATOM     18  C   ILE G   3     153.606 147.376 170.473  0.00  0.00    +0.000 C 
ATOM     19  O   ILE G   3     153.403 147.505 171.682  0.00  0.00    +0.000 OA
ATOM     20  CB  ILE G   3     153.322 149.412 169.011  0.00  0.00    +0.000 C 
ATOM     21  CG1 ILE G   3     154.058 150.588 168.389  0.00  0.00    +0.000 C 
ATOM     22  CG2 ILE G   3     152.326 149.921 170.016  0.00  0.00    +0.000 C 
ATOM     23  CD1 ILE G   3     153.148 151.667 167.892  0.00  0.00    +0.000 C 
ATOM     24  N   TRP G   4     153.208 146.293 169.807  0.00  0.00    +0.000 N 
ATOM     25  H   TRP G   4     153.413 146.191 168.827  0.00  0.00    +0.000 HD
ATOM     26  CA  TRP G   4     152.571 145.209 170.538  0.00  0.00    +0.000 C 
ATOM     27  C   TRP G   4     153.525 144.606 171.552  0.00  0.00    +0.000 C 
ATOM     28  O   TRP G   4     153.129 144.292 172.680  0.00  0.00    +0.000 OA
ATOM     29  CB  TRP G   4     152.081 144.121 169.598  0.00  0.00    +0.000 C 
ATOM     30  CG  TRP G   4     151.756 142.918 170.375  0.00  0.00    +0.000 A 
ATOM     31  CD1 TRP G   4     150.734 142.774 171.251  0.00  0.00    +0.000 A 
ATOM     32  CD2 TRP G   4     152.496 141.705 170.420  0.00  0.00    +0.000 A 
ATOM     33  NE1 TRP G   4     150.766 141.531 171.817  0.00  0.00    +0.000 N 
ATOM     34  HE1 TRP G   4     150.093 141.174 172.483  0.00  0.00    +0.000 HD
ATOM     35  CE2 TRP G   4     151.845 140.855 171.321  0.00  0.00    +0.000 A 
ATOM     36  CE3 TRP G   4     153.639 141.248 169.772  0.00  0.00    +0.000 A 
ATOM     37  CZ2 TRP G   4     152.297 139.580 171.592  0.00  0.00    +0.000 A 
ATOM     38  CZ3 TRP G   4     154.083 139.986 170.040  0.00  0.00    +0.000 A 
ATOM     39  CH2 TRP G   4     153.417 139.164 170.941  0.00  0.00    +0.000 A 
ATOM     40  N   LYS G   5     154.783 144.412 171.163  0.00  0.00    +0.000 N 
ATOM     41  H   LYS G   5     155.060 144.629 170.210  0.00  0.00    +0.000 HD
ATOM     42  CA  LYS G   5     155.744 143.847 172.098  0.00  0.00    +0.000 C 
ATOM     43  C   LYS G   5     155.941 144.765 173.290  0.00  0.00    +0.000 C 
ATOM     44  O   LYS G   5     156.036 144.303 174.430  0.00  0.00    +0.000 OA
ATOM     45  CB  LYS G   5     157.066 143.579 171.394  0.00  0.00    +0.000 C 
ATOM     46  CG  LYS G   5     157.069 142.300 170.604  0.00  0.00    +0.000 C 
ATOM     47  CD  LYS G   5     158.409 142.069 169.952  0.00  0.00    +0.000 C 
ATOM     48  CE  LYS G   5     158.575 140.616 169.564  0.00  0.00    +0.000 C 
ATOM     49  NZ  LYS G   5     158.133 139.708 170.655  0.00  0.00    +0.000 N 
ATOM     50  HZ1 LYS G   5     158.619 139.953 171.506  0.00  0.00    +0.000 HD
ATOM     51  HZ2 LYS G   5     157.134 139.806 170.794  0.00  0.00    +0.000 HD
ATOM     52  HZ3 LYS G   5     158.350 138.749 170.409  0.00  0.00    +0.000 HD
ATOM     53  N   LEU G   6     155.984 146.073 173.052  0.00  0.00    +0.000 N 
ATOM     54  H   LEU G   6     155.990 146.411 172.096  0.00  0.00    +0.000 HD
ATOM     55  CA  LEU G   6     156.108 147.007 174.166  0.00  0.00    +0.000 C 
ATOM     56  C   LEU G   6     154.872 146.987 175.057  0.00  0.00    +0.000 C 
ATOM     57  O   LEU G   6     154.987 147.104 176.282  0.00  0.00    +0.000 OA
ATOM     58  CB  LEU G   6     156.369 148.412 173.641  0.00  0.00    +0.000 C 
ATOM     59  CG  LEU G   6     156.232 149.536 174.659  0.00  0.00    +0.000 C 
ATOM     60  CD1 LEU G   6     157.379 149.485 175.631  0.00  0.00    +0.000 C 
ATOM     61  CD2 LEU G   6     156.196 150.873 173.959  0.00  0.00    +0.000 C 
ATOM     62  N   GLN G   7     153.687 146.845 174.466  0.00  0.00    +0.000 N 
ATOM     63  H   GLN G   7     153.637 146.809 173.452  0.00  0.00    +0.000 HD
ATOM     64  CA  GLN G   7     152.462 146.750 175.254  0.00  0.00    +0.000 C 
ATOM     65  C   GLN G   7     152.488 145.525 176.152  0.00  0.00    +0.000 C 
ATOM     66  O   GLN G   7     152.140 145.594 177.338  0.00  0.00    +0.000 OA
ATOM     67  CB  GLN G   7     151.257 146.699 174.323  0.00  0.00    +0.000 C 
ATOM     68  CG  GLN G   7     150.888 148.030 173.728  0.00  0.00    +0.000 C 
ATOM     69  CD  GLN G   7     149.752 147.925 172.748  0.00  0.00    +0.000 C 
ATOM     70  OE1 GLN G   7     149.216 146.847 172.517  0.00  0.00    +0.000 OA
ATOM     71  NE2 GLN G   7     149.382 149.047 172.153  0.00  0.00    +0.000 N 
ATOM     72 HE21 GLN G   7     149.829 149.928 172.332  0.00  0.00    +0.000 HD
ATOM     73 HE22 GLN G   7     148.619 149.004 171.494  0.00  0.00    +0.000 HD
ATOM     74  N   ARG G   8     152.899 144.388 175.601  0.00  0.00    +0.000 N 
ATOM     75  H   ARG G   8     153.118 144.361 174.606  0.00  0.00    +0.000 HD
ATOM     76  CA  ARG G   8     153.022 143.194 176.422  0.00  0.00    +0.000 C 
ATOM     77  C   ARG G   8     154.082 143.377 177.495  0.00  0.00    +0.000 C 
ATOM     78  O   ARG G   8     153.952 142.848 178.601  0.00  0.00    +0.000 OA
ATOM     79  CB  ARG G   8     153.342 141.984 175.559  0.00  0.00    +0.000 C 
ATOM     80  CG  ARG G   8     152.709 140.726 176.073  0.00  0.00    +0.000 C 
ATOM     81  CD  ARG G   8     153.099 139.552 175.229  0.00  0.00    +0.000 C 
ATOM     82  NE  ARG G   8     154.544 139.405 175.180  0.00  0.00    +0.000 N 
ATOM     83  HE  ARG G   8     155.101 140.123 175.612  0.00  0.00    +0.000 HD
ATOM     84  CZ  ARG G   8     155.165 138.396 174.586  0.00  0.00    +0.000 C 
ATOM     85  NH1 ARG G   8     154.460 137.444 173.999  0.00  0.00    +0.000 N 
ATOM     86 HH11 ARG G   8     154.893 136.592 173.698  0.00  0.00    +0.000 HD
ATOM     87 HH12 ARG G   8     153.456 137.505 174.037  0.00  0.00    +0.000 HD
ATOM     88  NH2 ARG G   8     156.486 138.338 174.582  0.00  0.00    +0.000 N 
ATOM     89 HH21 ARG G   8     156.938 137.563 174.134  0.00  0.00    +0.000 HD
ATOM     90 HH22 ARG G   8     157.017 138.907 175.223  0.00  0.00    +0.000 HD
ATOM     91  N   ALA G   9     155.143 144.122 177.188  0.00  0.00    +0.000 N 
ATOM     92  H   ALA G   9     155.261 144.481 176.249  0.00  0.00    +0.000 HD
ATOM     93  CA  ALA G   9     156.157 144.404 178.196  0.00  0.00    +0.000 C 
ATOM     94  C   ALA G   9     155.561 145.165 179.367  0.00  0.00    +0.000 C 
ATOM     95  O   ALA G   9     155.808 144.834 180.532  0.00  0.00    +0.000 OA
ATOM     96  CB  ALA G   9     157.301 145.197 177.576  0.00  0.00    +0.000 C 
ATOM     97  N   ILE G  10     154.774 146.198 179.073  0.00  0.00    +0.000 N 
ATOM     98  H   ILE G  10     154.667 146.479 178.104  0.00  0.00    +0.000 HD
ATOM     99  CA  ILE G  10     154.153 146.980 180.136  0.00  0.00    +0.000 C 
ATOM    100  C   ILE G  10     153.212 146.110 180.951  0.00  0.00    +0.000 C 
ATOM    101  O   ILE G  10     153.171 146.198 182.184  0.00  0.00    +0.000 OA
ATOM    102  CB  ILE G  10     153.420 148.197 179.555  0.00  0.00    +0.000 C 
ATOM    103  CG1 ILE G  10     154.396 149.104 178.825  0.00  0.00    +0.000 C 
ATOM    104  CG2 ILE G  10     152.741 148.965 180.651  0.00  0.00    +0.000 C 
ATOM    105  CD1 ILE G  10     153.724 150.205 178.074  0.00  0.00    +0.000 C 
ATOM    106  N   THR G  11     152.437 145.263 180.278  0.00  0.00    +0.000 N 
ATOM    107  H   THR G  11     152.509 145.219 179.269  0.00  0.00    +0.000 HD
ATOM    108  CA  THR G  11     151.541 144.369 181.000  0.00  0.00    +0.000 C 
ATOM    109  C   THR G  11     152.317 143.439 181.919  0.00  0.00    +0.000 C 
ATOM    110  O   THR G  11     151.927 143.230 183.072  0.00  0.00    +0.000 OA
ATOM    111  CB  THR G  11     150.701 143.564 180.019  0.00  0.00    +0.000 C 
ATOM    112  OG1 THR G  11     149.729 144.422 179.415  0.00  0.00    +0.000 OA
ATOM    113  HG1 THR G  11     150.016 145.320 179.615  0.00  0.00    +0.000 HD
ATOM    114  CG2 THR G  11     149.997 142.439 180.732  0.00  0.00    +0.000 C 
ATOM    115  N   NME G  12     153.425 142.885 181.432  0.00  0.00    +0.000 N 
ATOM    116  H   NME G  12     153.739 143.121 180.498  0.00  0.00    +0.000 HD
ATOM    117  C   NME G  12     154.219 141.962 182.234  0.00  0.00    +0.000 C 
TER 
