REMARK  Name = /data/user_data/xianyang/t3-aimnet-affinity-balanced/L1/P08922/pocket.pdb
REMARK                            x       y       z     vdW  Elec       q    Type
REMARK                         _______ _______ _______ _____ _____    ______ ____
ATOM      1  N   LEU A   1      46.780 -25.988  -5.265  0.00  0.00    +0.000 N 
ATOM      2  CA  LEU A   1      46.623 -24.785  -4.455  0.00  0.00    +0.000 C 
ATOM      3  C   LEU A   1      45.830 -25.052  -3.180  0.00  0.00    +0.000 C 
ATOM      4  O   LEU A   1      45.978 -24.344  -2.184  0.00  0.00    +0.000 OA
ATOM      5  CB  LEU A   1      45.933 -23.695  -5.273  0.00  0.00    +0.000 C 
ATOM      6  CG  LEU A   1      46.663 -23.306  -6.560  0.00  0.00    +0.000 C 
ATOM      7  CD1 LEU A   1      45.940 -22.157  -7.238  0.00  0.00    +0.000 C 
ATOM      8  CD2 LEU A   1      48.092 -22.919  -6.233  0.00  0.00    +0.000 C 
ATOM      9  N   GLY A   2      44.989 -26.077  -3.212  0.00  0.00    +0.000 N 
ATOM     10  CA  GLY A   2      44.174 -26.388  -2.054  0.00  0.00    +0.000 C 
ATOM     11  C   GLY A   2      42.982 -27.241  -2.422  0.00  0.00    +0.000 C 
ATOM     12  O   GLY A   2      42.817 -27.621  -3.584  0.00  0.00    +0.000 OA
ATOM     13  N   SER A   3      42.152 -27.545  -1.430  0.00  0.00    +0.000 N 
ATOM     14  CA  SER A   3      40.965 -28.364  -1.642  0.00  0.00    +0.000 C 
ATOM     15  C   SER A   3      39.690 -27.575  -1.341  0.00  0.00    +0.000 C 
ATOM     16  O   SER A   3      39.234 -27.523  -0.196  0.00  0.00    +0.000 OA
ATOM     17  CB  SER A   3      41.026 -29.609  -0.754  0.00  0.00    +0.000 C 
ATOM     18  OG  SER A   3      39.860 -30.401  -0.903  0.00  0.00    +0.000 OA
ATOM     19  N   GLY A   4      39.117 -26.968  -2.377  0.00  0.00    +0.000 N 
ATOM     20  CA  GLY A   4      37.915 -26.172  -2.197  0.00  0.00    +0.000 C 
ATOM     21  C   GLY A   4      36.670 -26.828  -2.765  0.00  0.00    +0.000 C 
ATOM     22  O   GLY A   4      36.669 -27.285  -3.910  0.00  0.00    +0.000 OA
ATOM     23  H   LEU A   1      47.314 -25.765  -6.105  0.00  0.00    +0.000 HD
ATOM     24  H   LEU A   1      45.861 -26.341  -5.531  0.00  0.00    +0.000 HD
ATOM     25  H   LEU A   1      47.275 -26.699  -4.726  0.00  0.00    +0.000 HD
ATOM     26  H   GLY A   2      44.918 -26.628  -4.025  0.00  0.00    +0.000 HD
ATOM     27  H   SER A   3      42.344 -27.207  -0.525  0.00  0.00    +0.000 HD
ATOM     28  H   SER A   3      39.082 -29.884  -0.641  0.00  0.00    +0.000 HD
ATOM     29  H   GLY A   4      39.511 -27.059  -3.274  0.00  0.00    +0.000 HD
TER 
REMARK  Name = /data/user_data/xianyang/t3-aimnet-affinity-balanced/L1/P08922/pocket.pdb
REMARK                            x       y       z     vdW  Elec       q    Type
REMARK                         _______ _______ _______ _____ _____    ______ ____
ATOM      1  N   VAL B   1      41.398 -27.600  -6.005  0.00  0.00    +0.000 N 
ATOM      2  CA  VAL B   1      41.829 -26.500  -6.861  0.00  0.00    +0.000 C 
ATOM      3  C   VAL B   1      43.314 -26.606  -7.158  0.00  0.00    +0.000 C 
ATOM      4  O   VAL B   1      44.101 -26.939  -6.275  0.00  0.00    +0.000 OA
ATOM      5  CB  VAL B   1      41.564 -25.136  -6.196  0.00  0.00    +0.000 C 
ATOM      6  CG1 VAL B   1      41.971 -24.017  -7.139  0.00  0.00    +0.000 C 
ATOM      7  CG2 VAL B   1      40.103 -25.017  -5.807  0.00  0.00    +0.000 C 
ATOM      8  H   VAL B   1      41.586 -28.487  -6.471  0.00  0.00    +0.000 HD
ATOM      9  H   VAL B   1      40.398 -27.517  -5.822  0.00  0.00    +0.000 HD
ATOM     10  H   VAL B   1      41.909 -27.565  -5.123  0.00  0.00    +0.000 HD
TER 
REMARK  Name = /data/user_data/xianyang/t3-aimnet-affinity-balanced/L1/P08922/pocket.pdb
REMARK                            x       y       z     vdW  Elec       q    Type
REMARK                         _______ _______ _______ _____ _____    ______ ____
ATOM      1  N   GLU C   1      46.754 -24.775  -9.459  0.00  0.00    +0.000 N 
ATOM      2  CA  GLU C   1      47.333 -23.883 -10.451  0.00  0.00    +0.000 C 
ATOM      3  C   GLU C   1      47.777 -24.727 -11.629  0.00  0.00    +0.000 C 
ATOM      4  O   GLU C   1      48.254 -25.850 -11.457  0.00  0.00    +0.000 OA
ATOM      5  CB  GLU C   1      48.541 -23.109  -9.908  0.00  0.00    +0.000 C 
ATOM      6  CG  GLU C   1      49.191 -22.231 -10.989  0.00  0.00    +0.000 C 
ATOM      7  CD  GLU C   1      50.300 -21.316 -10.476  0.00  0.00    +0.000 C 
ATOM      8  OE2 GLU C   1      50.402 -21.104  -9.249  0.00  0.00    +0.000 OA
ATOM      9  OE1 GLU C   1      51.072 -20.802 -11.315  0.00  0.00    +0.000 OA
ATOM     10  H   GLU C   1      45.957 -25.265  -9.866  0.00  0.00    +0.000 HD
ATOM     11  H   GLU C   1      46.444 -24.232  -8.653  0.00  0.00    +0.000 HD
ATOM     12  H   GLU C   1      47.455 -25.454  -9.162  0.00  0.00    +0.000 HD
TER 
REMARK  Name = /data/user_data/xianyang/t3-aimnet-affinity-balanced/L1/P08922/pocket.pdb
REMARK                            x       y       z     vdW  Elec       q    Type
REMARK                         _______ _______ _______ _____ _____    ______ ____
ATOM      1  N   ALA D   1      43.965 -20.746 -12.665  0.00  0.00    +0.000 N 
ATOM      2  CA  ALA D   1      43.543 -21.642 -11.587  0.00  0.00    +0.000 C 
ATOM      3  C   ALA D   1      42.468 -22.581 -12.121  0.00  0.00    +0.000 C 
ATOM      4  O   ALA D   1      41.750 -22.241 -13.056  0.00  0.00    +0.000 OA
ATOM      5  CB  ALA D   1      42.999 -20.841 -10.409  0.00  0.00    +0.000 C 
ATOM      6  H   ALA D   1      44.326 -21.297 -13.444  0.00  0.00    +0.000 HD
ATOM      7  H   ALA D   1      44.696 -20.123 -12.322  0.00  0.00    +0.000 HD
ATOM      8  H   ALA D   1      43.167 -20.194 -12.980  0.00  0.00    +0.000 HD
TER 
REMARK  Name = /data/user_data/xianyang/t3-aimnet-affinity-balanced/L1/P08922/pocket.pdb
REMARK                            x       y       z     vdW  Elec       q    Type
REMARK                         _______ _______ _______ _____ _____    ______ ____
ATOM      1  N   LYS E   1      39.265 -25.109 -10.882  0.00  0.00    +0.000 N 
ATOM      2  CA  LYS E   1      38.366 -25.682  -9.891  0.00  0.00    +0.000 C 
ATOM      3  C   LYS E   1      37.815 -26.996 -10.456  0.00  0.00    +0.000 C 
ATOM      4  O   LYS E   1      37.374 -27.047 -11.600  0.00  0.00    +0.000 OA
ATOM      5  CB  LYS E   1      37.232 -24.688  -9.607  0.00  0.00    +0.000 C 
ATOM      6  CG  LYS E   1      36.437 -24.951  -8.339  0.00  0.00    +0.000 C 
ATOM      7  CD  LYS E   1      35.421 -23.840  -8.104  0.00  0.00    +0.000 C 
ATOM      8  CE  LYS E   1      34.486 -24.169  -6.945  0.00  0.00    +0.000 C 
ATOM      9  NZ  LYS E   1      35.186 -24.174  -5.623  0.00  0.00    +0.000 N 
ATOM     10  H   LYS E   1      40.021 -25.766 -11.075  0.00  0.00    +0.000 HD
ATOM     11  H   LYS E   1      39.655 -24.237 -10.524  0.00  0.00    +0.000 HD
ATOM     12  H   LYS E   1      38.749 -24.923 -11.742  0.00  0.00    +0.000 HD
ATOM     13  H   LYS E   1      35.911 -24.891  -5.625  0.00  0.00    +0.000 HD
ATOM     14  H   LYS E   1      34.513 -24.373  -4.883  0.00  0.00    +0.000 HD
ATOM     15  H   LYS E   1      35.611 -23.261  -5.460  0.00  0.00    +0.000 HD
TER 
REMARK  Name = /data/user_data/xianyang/t3-aimnet-affinity-balanced/L1/P08922/pocket.pdb
REMARK                            x       y       z     vdW  Elec       q    Type
REMARK                         _______ _______ _______ _____ _____    ______ ____
ATOM      1  N   LEU F   1      35.813 -12.097 -10.056  0.00  0.00    +0.000 N 
ATOM      2  CA  LEU F   1      36.697 -13.108 -10.620  0.00  0.00    +0.000 C 
ATOM      3  C   LEU F   1      36.249 -13.544 -12.017  0.00  0.00    +0.000 C 
ATOM      4  O   LEU F   1      35.072 -13.833 -12.240  0.00  0.00    +0.000 OA
ATOM      5  CB  LEU F   1      36.754 -14.329  -9.696  0.00  0.00    +0.000 C 
ATOM      6  CG  LEU F   1      37.703 -15.442 -10.165  0.00  0.00    +0.000 C 
ATOM      7  CD1 LEU F   1      39.129 -14.886 -10.222  0.00  0.00    +0.000 C 
ATOM      8  CD2 LEU F   1      37.619 -16.653  -9.224  0.00  0.00    +0.000 C 
ATOM      9  H   LEU F   1      35.781 -11.289 -10.677  0.00  0.00    +0.000 HD
ATOM     10  H   LEU F   1      36.164 -11.810  -9.142  0.00  0.00    +0.000 HD
ATOM     11  H   LEU F   1      34.875 -12.484  -9.954  0.00  0.00    +0.000 HD
TER 
REMARK  Name = /data/user_data/xianyang/t3-aimnet-affinity-balanced/L1/P08922/pocket.pdb
REMARK                            x       y       z     vdW  Elec       q    Type
REMARK                         _______ _______ _______ _____ _____    ______ ____
ATOM      1  N   LEU G   1      39.636 -20.579 -13.922  0.00  0.00    +0.000 N 
ATOM      2  CA  LEU G   1      39.568 -19.208 -13.431  0.00  0.00    +0.000 C 
ATOM      3  C   LEU G   1      40.902 -18.483 -13.636  0.00  0.00    +0.000 C 
ATOM      4  O   LEU G   1      41.972 -19.098 -13.621  0.00  0.00    +0.000 OA
ATOM      5  CB  LEU G   1      39.220 -19.220 -11.946  0.00  0.00    +0.000 C 
ATOM      6  CG  LEU G   1      38.023 -20.078 -11.541  0.00  0.00    +0.000 C 
ATOM      7  CD2 LEU G   1      38.138 -20.476 -10.076  0.00  0.00    +0.000 C 
ATOM      8  CD1 LEU G   1      36.748 -19.309 -11.800  0.00  0.00    +0.000 C 
ATOM      9  N   GLU G   2      40.840 -17.171 -13.818  0.00  0.00    +0.000 N 
ATOM     10  CA  GLU G   2      42.062 -16.387 -13.843  0.00  0.00    +0.000 C 
ATOM     11  C   GLU G   2      42.799 -16.627 -12.526  0.00  0.00    +0.000 C 
ATOM     12  O   GLU G   2      42.180 -16.735 -11.457  0.00  0.00    +0.000 OA
ATOM     13  CB  GLU G   2      41.745 -14.902 -14.006  0.00  0.00    +0.000 C 
ATOM     14  CG  GLU G   2      41.058 -14.280 -12.809  0.00  0.00    +0.000 C 
ATOM     15  CD  GLU G   2      40.768 -12.801 -13.009  0.00  0.00    +0.000 C 
ATOM     16  OE1 GLU G   2      41.699 -12.058 -13.375  0.00  0.00    +0.000 OA
ATOM     17  OE2 GLU G   2      39.609 -12.382 -12.804  0.00  0.00    +0.000 OA
ATOM     18  N   LEU G   3      44.120 -16.733 -12.607  0.00  0.00    +0.000 N 
ATOM     19  CA  LEU G   3      44.921 -16.973 -11.418  0.00  0.00    +0.000 C 
ATOM     20  C   LEU G   3      45.087 -15.675 -10.626  0.00  0.00    +0.000 C 
ATOM     21  O   LEU G   3      45.420 -14.627 -11.187  0.00  0.00    +0.000 OA
ATOM     22  CB  LEU G   3      46.293 -17.525 -11.806  0.00  0.00    +0.000 C 
ATOM     23  CG  LEU G   3      47.148 -17.992 -10.629  0.00  0.00    +0.000 C 
ATOM     24  CD2 LEU G   3      46.447 -19.151  -9.918  0.00  0.00    +0.000 C 
ATOM     25  CD1 LEU G   3      48.522 -18.417 -11.137  0.00  0.00    +0.000 C 
ATOM     26  N   MET G   4      44.829 -15.755  -9.325  0.00  0.00    +0.000 N 
ATOM     27  CA  MET G   4      45.029 -14.624  -8.427  0.00  0.00    +0.000 C 
ATOM     28  C   MET G   4      46.152 -14.990  -7.474  0.00  0.00    +0.000 C 
ATOM     29  O   MET G   4      45.924 -15.589  -6.430  0.00  0.00    +0.000 OA
ATOM     30  CB  MET G   4      43.741 -14.330  -7.650  0.00  0.00    +0.000 C 
ATOM     31  CG  MET G   4      42.555 -14.043  -8.553  0.00  0.00    +0.000 C 
ATOM     32  SD  MET G   4      42.745 -12.484  -9.454  0.00  0.00    +0.000 S 
ATOM     33  CE  MET G   4      42.341 -11.315  -8.157  0.00  0.00    +0.000 C 
ATOM     34  N   GLU G   5      47.374 -14.633  -7.841  0.00  0.00    +0.000 N 
ATOM     35  CA  GLU G   5      48.541 -15.196  -7.179  0.00  0.00    +0.000 C 
ATOM     36  C   GLU G   5      48.693 -14.763  -5.728  0.00  0.00    +0.000 C 
ATOM     37  O   GLU G   5      49.514 -15.311  -4.988  0.00  0.00    +0.000 OA
ATOM     38  CB  GLU G   5      49.796 -14.854  -7.975  0.00  0.00    +0.000 C 
ATOM     39  CG  GLU G   5      49.835 -15.548  -9.328  0.00  0.00    +0.000 C 
ATOM     40  CD  GLU G   5      50.840 -14.937 -10.283  0.00  0.00    +0.000 C 
ATOM     41  OE2 GLU G   5      51.926 -14.517  -9.824  0.00  0.00    +0.000 OA
ATOM     42  OE1 GLU G   5      50.543 -14.880 -11.497  0.00  0.00    +0.000 OA
ATOM     43  N   GLY G   6      47.892 -13.792  -5.310  0.00  0.00    +0.000 N 
ATOM     44  CA  GLY G   6      47.894 -13.413  -3.909  0.00  0.00    +0.000 C 
ATOM     45  C   GLY G   6      47.069 -14.337  -3.036  0.00  0.00    +0.000 C 
ATOM     46  O   GLY G   6      47.036 -14.179  -1.816  0.00  0.00    +0.000 OA
ATOM     47  N   GLY G   7      46.394 -15.304  -3.651  0.00  0.00    +0.000 N 
ATOM     48  CA  GLY G   7      45.540 -16.199  -2.886  0.00  0.00    +0.000 C 
ATOM     49  C   GLY G   7      44.318 -15.487  -2.342  0.00  0.00    +0.000 C 
ATOM     50  O   GLY G   7      43.953 -14.418  -2.832  0.00  0.00    +0.000 OA
ATOM     51  N   ASP G   8      43.682 -16.066  -1.327  0.00  0.00    +0.000 N 
ATOM     52  CA  ASP G   8      42.481 -15.461  -0.766  0.00  0.00    +0.000 C 
ATOM     53  C   ASP G   8      42.835 -14.245   0.084  0.00  0.00    +0.000 C 
ATOM     54  O   ASP G   8      43.869 -14.218   0.734  0.00  0.00    +0.000 OA
ATOM     55  CB  ASP G   8      41.698 -16.475   0.077  0.00  0.00    +0.000 C 
ATOM     56  CG  ASP G   8      42.485 -16.984   1.270  0.00  0.00    +0.000 C 
ATOM     57  OD1 ASP G   8      43.472 -17.714   1.058  0.00  0.00    +0.000 OA
ATOM     58  OD2 ASP G   8      42.114 -16.660   2.421  0.00  0.00    +0.000 OA
ATOM     59  H   LEU G   1      39.869 -20.573 -14.915  0.00  0.00    +0.000 HD
ATOM     60  H   LEU G   1      38.733 -21.034 -13.787  0.00  0.00    +0.000 HD
ATOM     61  H   LEU G   1      40.354 -21.089 -13.408  0.00  0.00    +0.000 HD
ATOM     62  H   GLU G   2      39.968 -16.730 -13.936  0.00  0.00    +0.000 HD
ATOM     63  H   LEU G   3      44.562 -16.648 -13.483  0.00  0.00    +0.000 HD
ATOM     64  H   MET G   4      44.493 -16.604  -8.956  0.00  0.00    +0.000 HD
ATOM     65  H   GLU G   5      47.494 -13.981  -8.569  0.00  0.00    +0.000 HD
ATOM     66  H   GLY G   6      47.299 -13.331  -5.947  0.00  0.00    +0.000 HD
ATOM     67  H   GLY G   7      46.473 -15.414  -4.626  0.00  0.00    +0.000 HD
ATOM     68  H   ASP G   8      44.025 -16.909  -0.952  0.00  0.00    +0.000 HD
TER 
REMARK  Name = /data/user_data/xianyang/t3-aimnet-affinity-balanced/L1/P08922/pocket.pdb
REMARK                            x       y       z     vdW  Elec       q    Type
REMARK                         _______ _______ _______ _____ _____    ______ ____
ATOM      1  N   ARG H   1      37.792 -14.555   3.167  0.00  0.00    +0.000 N 
ATOM      2  CA  ARG H   1      38.117 -15.899   2.677  0.00  0.00    +0.000 C 
ATOM      3  C   ARG H   1      37.541 -16.113   1.275  0.00  0.00    +0.000 C 
ATOM      4  O   ARG H   1      38.005 -16.975   0.527  0.00  0.00    +0.000 OA
ATOM      5  CB  ARG H   1      37.556 -16.977   3.626  0.00  0.00    +0.000 C 
ATOM      6  CG  ARG H   1      36.079 -17.309   3.392  0.00  0.00    +0.000 C 
ATOM      7  CD  ARG H   1      35.521 -18.313   4.411  0.00  0.00    +0.000 C 
ATOM      8  NE  ARG H   1      35.025 -17.635   5.602  0.00  0.00    +0.000 N 
ATOM      9  CZ  ARG H   1      33.775 -17.210   5.765  0.00  0.00    +0.000 C 
ATOM     10  NH1 ARG H   1      32.867 -17.396   4.815  0.00  0.00    +0.000 N 
ATOM     11  NH2 ARG H   1      33.439 -16.570   6.873  0.00  0.00    +0.000 N 
ATOM     12  N   ASN H   2      36.533 -15.322   0.917  0.00  0.00    +0.000 N 
ATOM     13  CA  ASN H   2      35.867 -15.486  -0.372  0.00  0.00    +0.000 C 
ATOM     14  C   ASN H   2      36.271 -14.475  -1.440  0.00  0.00    +0.000 C 
ATOM     15  O   ASN H   2      35.716 -14.476  -2.528  0.00  0.00    +0.000 OA
ATOM     16  CB  ASN H   2      34.356 -15.456  -0.174  0.00  0.00    +0.000 C 
ATOM     17  CG  ASN H   2      33.859 -16.651   0.623  0.00  0.00    +0.000 C 
ATOM     18  OD1 ASN H   2      34.510 -17.699   0.661  0.00  0.00    +0.000 OA
ATOM     19  ND2 ASN H   2      32.709 -16.497   1.269  0.00  0.00    +0.000 N 
ATOM     20  N   CYS H   3      37.244 -13.622  -1.127  0.00  0.00    +0.000 N 
ATOM     21  CA  CYS H   3      37.840 -12.721  -2.116  0.00  0.00    +0.000 C 
ATOM     22  C   CYS H   3      39.254 -13.147  -2.466  0.00  0.00    +0.000 C 
ATOM     23  O   CYS H   3      39.850 -13.954  -1.758  0.00  0.00    +0.000 OA
ATOM     24  CB  CYS H   3      37.885 -11.292  -1.581  0.00  0.00    +0.000 C 
ATOM     25  SG  CYS H   3      36.291 -10.709  -1.070  0.00  0.00    +0.000 S 
ATOM     26  N   LEU H   4      39.792 -12.580  -3.546  0.00  0.00    +0.000 N 
ATOM     27  CA  LEU H   4      41.112 -12.967  -4.046  0.00  0.00    +0.000 C 
ATOM     28  C   LEU H   4      41.952 -11.756  -4.440  0.00  0.00    +0.000 C 
ATOM     29  O   LEU H   4      41.424 -10.762  -4.940  0.00  0.00    +0.000 OA
ATOM     30  CB  LEU H   4      40.969 -13.895  -5.260  0.00  0.00    +0.000 C 
ATOM     31  CG  LEU H   4      40.418 -15.317  -5.077  0.00  0.00    +0.000 C 
ATOM     32  CD1 LEU H   4      40.065 -15.890  -6.454  0.00  0.00    +0.000 C 
ATOM     33  CD2 LEU H   4      41.447 -16.210  -4.358  0.00  0.00    +0.000 C 
ATOM     34  H   ARG H   1      38.172 -13.858   2.526  0.00  0.00    +0.000 HD
ATOM     35  H   ARG H   1      38.199 -14.423   4.093  0.00  0.00    +0.000 HD
ATOM     36  H   ARG H   1      36.779 -14.449   3.223  0.00  0.00    +0.000 HD
ATOM     37  H   ARG H   1      35.660 -17.481   6.338  0.00  0.00    +0.000 HD
ATOM     38  H   ARG H   1      33.110 -17.871   3.988  0.00  0.00    +0.000 HD
ATOM     39  H   ARG H   1      31.950 -17.059   4.937  0.00  0.00    +0.000 HD
ATOM     40  H   ARG H   1      32.515 -16.254   6.998  0.00  0.00    +0.000 HD
ATOM     41  H   ARG H   1      34.113 -16.410   7.573  0.00  0.00    +0.000 HD
ATOM     42  H   ASN H   2      36.231 -14.614   1.531  0.00  0.00    +0.000 HD
ATOM     43  H   ASN H   2      32.222 -15.643   1.211  0.00  0.00    +0.000 HD
ATOM     44  H   ASN H   2      32.343 -17.237   1.806  0.00  0.00    +0.000 HD
ATOM     45  H   CYS H   3      37.574 -13.596  -0.200  0.00  0.00    +0.000 HD
ATOM     46  H   CYS H   3      35.447 -10.702  -2.137  0.00  0.00    +0.000 HD
ATOM     47  H   LEU H   4      39.287 -11.881  -4.021  0.00  0.00    +0.000 HD
TER 
REMARK  Name = /data/user_data/xianyang/t3-aimnet-affinity-balanced/L1/P08922/pocket.pdb
REMARK                            x       y       z     vdW  Elec       q    Type
REMARK                         _______ _______ _______ _____ _____    ______ ____
ATOM      1  N   LYS I   1      39.127  -9.196  -5.967  0.00  0.00    +0.000 N 
ATOM      2  CA  LYS I   1      37.866  -9.513  -6.614  0.00  0.00    +0.000 C 
ATOM      3  C   LYS I   1      37.066 -10.453  -5.723  0.00  0.00    +0.000 C 
ATOM      4  O   LYS I   1      37.642 -11.228  -4.963  0.00  0.00    +0.000 OA
ATOM      5  CB  LYS I   1      38.131 -10.182  -7.965  0.00  0.00    +0.000 C 
ATOM      6  CG  LYS I   1      39.099  -9.411  -8.825  0.00  0.00    +0.000 C 
ATOM      7  CD  LYS I   1      39.329 -10.071 -10.176  0.00  0.00    +0.000 C 
ATOM      8  CE  LYS I   1      40.212  -9.181 -11.066  0.00  0.00    +0.000 C 
ATOM      9  NZ  LYS I   1      39.984  -9.430 -12.509  0.00  0.00    +0.000 N 
ATOM     10  N   ILE I   2      35.743 -10.370  -5.811  0.00  0.00    +0.000 N 
ATOM     11  CA  ILE I   2      34.868 -11.368  -5.211  0.00  0.00    +0.000 C 
ATOM     12  C   ILE I   2      34.972 -12.621  -6.062  0.00  0.00    +0.000 C 
ATOM     13  O   ILE I   2      34.908 -12.553  -7.292  0.00  0.00    +0.000 OA
ATOM     14  CB  ILE I   2      33.394 -10.902  -5.200  0.00  0.00    +0.000 C 
ATOM     15  CG1 ILE I   2      33.292  -9.502  -4.569  0.00  0.00    +0.000 C 
ATOM     16  CG2 ILE I   2      32.545 -11.907  -4.408  0.00  0.00    +0.000 C 
ATOM     17  CD1 ILE I   2      31.886  -8.930  -4.549  0.00  0.00    +0.000 C 
ATOM     18  N   GLY I   3      35.137 -13.769  -5.416  0.00  0.00    +0.000 N 
ATOM     19  CA  GLY I   3      35.548 -14.936  -6.165  0.00  0.00    +0.000 C 
ATOM     20  C   GLY I   3      34.936 -16.267  -5.798  0.00  0.00    +0.000 C 
ATOM     21  O   GLY I   3      35.423 -17.296  -6.263  0.00  0.00    +0.000 OA
ATOM     22  N   ASP I   4      33.894 -16.277  -4.973  0.00  0.00    +0.000 N 
ATOM     23  CA  ASP I   4      33.222 -17.536  -4.653  0.00  0.00    +0.000 C 
ATOM     24  C   ASP I   4      31.717 -17.375  -4.478  0.00  0.00    +0.000 C 
ATOM     25  O   ASP I   4      31.242 -16.977  -3.414  0.00  0.00    +0.000 OA
ATOM     26  CB  ASP I   4      33.813 -18.150  -3.390  0.00  0.00    +0.000 C 
ATOM     27  CG  ASP I   4      33.059 -19.391  -2.943  0.00  0.00    +0.000 C 
ATOM     28  OD2 ASP I   4      32.000 -19.232  -2.292  0.00  0.00    +0.000 OA
ATOM     29  OD1 ASP I   4      33.521 -20.518  -3.246  0.00  0.00    +0.000 OA
ATOM     30  H   LYS I   1      39.665  -8.566  -6.562  0.00  0.00    +0.000 HD
ATOM     31  H   LYS I   1      39.656 -10.055  -5.814  0.00  0.00    +0.000 HD
ATOM     32  H   LYS I   1      38.945  -8.745  -5.071  0.00  0.00    +0.000 HD
ATOM     33  H   LYS I   1      39.014  -9.217 -12.742  0.00  0.00    +0.000 HD
ATOM     34  H   LYS I   1      40.177 -10.409 -12.720  0.00  0.00    +0.000 HD
ATOM     35  H   LYS I   1      40.604  -8.836 -13.059  0.00  0.00    +0.000 HD
ATOM     36  H   ILE I   2      35.343  -9.612  -6.296  0.00  0.00    +0.000 HD
ATOM     37  H   GLY I   3      34.982 -13.825  -4.445  0.00  0.00    +0.000 HD
ATOM     38  H   ASP I   4      33.574 -15.435  -4.576  0.00  0.00    +0.000 HD
TER 
