REMARK  Name = /home/xianyang/aimnet2_score_pipelines/work/L1234-fixed-receptor-eint-20260921/L1/Q96MU7/prepared.pdb
REMARK                            x       y       z     vdW  Elec       q    Type
REMARK                         _______ _______ _______ _____ _____    ______ ____
ATOM      1  CH3 ACE A   1       4.923   3.672  -8.373  0.00  0.00    +0.000 C 
ATOM      2  C   ACE A   1       5.845   3.493  -7.176  0.00  0.00    +0.000 C 
ATOM      3  O   ACE A   1       6.310   2.382  -6.885  0.00  0.00    +0.000 OA
ATOM      4  N   LEU A   2       6.060   4.604  -6.460  0.00  0.00    +0.000 N 
ATOM      5  H   LEU A   2       5.603   5.462  -6.748  0.00  0.00    +0.000 HD
ATOM      6  CA  LEU A   2       6.796   4.602  -5.206  0.00  0.00    +0.000 C 
ATOM      7  C   LEU A   2       5.901   4.065  -4.106  0.00  0.00    +0.000 C 
ATOM      8  O   LEU A   2       4.735   4.452  -4.012  0.00  0.00    +0.000 OA
ATOM      9  CB  LEU A   2       7.244   6.032  -4.865  0.00  0.00    +0.000 C 
ATOM     10  CG  LEU A   2       8.127   6.222  -3.633  0.00  0.00    +0.000 C 
ATOM     11  CD1 LEU A   2       9.464   5.528  -3.802  0.00  0.00    +0.000 C 
ATOM     12  CD2 LEU A   2       8.362   7.715  -3.379  0.00  0.00    +0.000 C 
ATOM     13  N   ILE A   3       6.414   3.116  -3.323  0.00  0.00    +0.000 N 
ATOM     14  H   ILE A   3       7.349   2.786  -3.503  0.00  0.00    +0.000 HD
ATOM     15  CA  ILE A   3       5.711   2.569  -2.170  0.00  0.00    +0.000 C 
ATOM     16  C   ILE A   3       6.485   2.971  -0.931  0.00  0.00    +0.000 C 
ATOM     17  O   ILE A   3       7.695   2.734  -0.848  0.00  0.00    +0.000 OA
ATOM     18  CB  ILE A   3       5.576   1.038  -2.251  0.00  0.00    +0.000 C 
ATOM     19  CG1 ILE A   3       4.645   0.640  -3.400  0.00  0.00    +0.000 C 
ATOM     20  CG2 ILE A   3       5.157   0.444  -0.879  0.00  0.00    +0.000 C 
ATOM     21  CD1 ILE A   3       3.263   1.320  -3.340  0.00  0.00    +0.000 C 
ATOM     22  N   LYS A   4       5.809   3.622   0.015  0.00  0.00    +0.000 N 
ATOM     23  H   LYS A   4       4.789   3.642  -0.072  0.00  0.00    +0.000 HD
ATOM     24  CA  LYS A   4       6.427   4.018   1.275  0.00  0.00    +0.000 C 
ATOM     25  C   LYS A   4       5.813   3.198   2.398  0.00  0.00    +0.000 C 
ATOM     26  O   LYS A   4       4.587   3.129   2.511  0.00  0.00    +0.000 OA
ATOM     27  CB  LYS A   4       6.234   5.516   1.540  0.00  0.00    +0.000 C 
ATOM     28  CG  LYS A   4       6.882   6.399   0.475  0.00  0.00    +0.000 C 
ATOM     29  CD  LYS A   4       8.407   6.351   0.547  0.00  0.00    +0.000 C 
ATOM     30  CE  LYS A   4       9.021   7.690   0.929  0.00  0.00    +0.000 C 
ATOM     31  NZ  LYS A   4       9.399   8.544  -0.251  0.00  0.00    +0.000 N 
ATOM     32  HZ1 LYS A   4       8.583   8.919  -0.723  0.00  0.00    +0.000 HD
ATOM     33  HZ2 LYS A   4       9.990   9.320   0.021  0.00  0.00    +0.000 HD
ATOM     34  HZ3 LYS A   4       9.932   8.026  -0.942  0.00  0.00    +0.000 HD
ATOM     35  N   SER A   5       6.655   2.547   3.201  0.00  0.00    +0.000 N 
ATOM     36  H   SER A   5       7.647   2.626   3.014  0.00  0.00    +0.000 HD
ATOM     37  CA  SER A   5       6.198   1.766   4.339  0.00  0.00    +0.000 C 
ATOM     38  C   SER A   5       6.656   2.417   5.638  0.00  0.00    +0.000 C 
ATOM     39  O   SER A   5       7.798   2.871   5.746  0.00  0.00    +0.000 OA
ATOM     40  CB  SER A   5       6.740   0.329   4.269  0.00  0.00    +0.000 C 
ATOM     41  OG  SER A   5       6.371  -0.394   5.438  0.00  0.00    +0.000 OA
ATOM     42  HG  SER A   5       7.153  -0.861   5.802  0.00  0.00    +0.000 HD
ATOM     43  N   ASN A   6       5.776   2.420   6.638  0.00  0.00    +0.000 N 
ATOM     44  H   ASN A   6       4.859   2.029   6.493  0.00  0.00    +0.000 HD
ATOM     45  CA  ASN A   6       6.141   2.983   7.931  0.00  0.00    +0.000 C 
ATOM     46  C   ASN A   6       7.147   2.114   8.671  0.00  0.00    +0.000 C 
ATOM     47  O   ASN A   6       7.899   2.631   9.507  0.00  0.00    +0.000 OA
ATOM     48  CB  ASN A   6       4.896   3.165   8.804  0.00  0.00    +0.000 C 
ATOM     49  CG  ASN A   6       4.190   4.471   8.546  0.00  0.00    +0.000 C 
ATOM     50  OD1 ASN A   6       4.298   5.045   7.463  0.00  0.00    +0.000 OA
ATOM     51  ND2 ASN A   6       3.457   4.953   9.549  0.00  0.00    +0.000 N 
ATOM     52 HD21 ASN A   6       2.859   5.746   9.394  0.00  0.00    +0.000 HD
ATOM     53 HD22 ASN A   6       3.512   4.530  10.464  0.00  0.00    +0.000 HD
ATOM     54  N   ASN A   7       7.178   0.810   8.398  0.00  0.00    +0.000 N 
ATOM     55  H   ASN A   7       6.612   0.432   7.650  0.00  0.00    +0.000 HD
ATOM     56  CA  ASN A   7       8.047  -0.085   9.146  0.00  0.00    +0.000 C 
ATOM     57  C   ASN A   7       8.720  -1.095   8.223  0.00  0.00    +0.000 C 
ATOM     58  O   ASN A   7       8.245  -1.391   7.117  0.00  0.00    +0.000 OA
ATOM     59  CB  ASN A   7       7.289  -0.813  10.273  0.00  0.00    +0.000 C 
ATOM     60  CG  ASN A   7       6.093  -1.583   9.778  0.00  0.00    +0.000 C 
ATOM     61  OD1 ASN A   7       6.212  -2.472   8.927  0.00  0.00    +0.000 OA
ATOM     62  ND2 ASN A   7       4.924  -1.267  10.321  0.00  0.00    +0.000 N 
ATOM     63 HD21 ASN A   7       4.644  -1.931  11.038  0.00  0.00    +0.000 HD
ATOM     64 HD22 ASN A   7       4.795  -0.306  10.578  0.00  0.00    +0.000 HD
ATOM     65  N   HIS A   8       9.869  -1.582   8.688  0.00  0.00    +0.000 N 
ATOM     66  H   HIS A   8      10.179  -1.311   9.611  0.00  0.00    +0.000 HD
ATOM     67  CA  HIS A   8      10.580  -2.652   7.995  0.00  0.00    +0.000 C 
ATOM     68  C   HIS A   8       9.818  -3.970   8.013  0.00  0.00    +0.000 C 
ATOM     69  O   HIS A   8       9.953  -4.770   7.079  0.00  0.00    +0.000 OA
ATOM     70  CB  HIS A   8      11.955  -2.851   8.624  0.00  0.00    +0.000 C 
ATOM     71  CG  HIS A   8      12.974  -1.852   8.180  0.00  0.00    +0.000 A 
ATOM     72  ND1 HIS A   8      13.492  -1.831   6.900  0.00  0.00    +0.000 N 
ATOM     73  HD1 HIS A   8      13.270  -2.487   6.168  0.00  0.00    +0.000 HD
ATOM     74  CD2 HIS A   8      13.574  -0.837   8.845  0.00  0.00    +0.000 A 
ATOM     75  CE1 HIS A   8      14.364  -0.844   6.798  0.00  0.00    +0.000 A 
ATOM     76  NE2 HIS A   8      14.431  -0.225   7.964  0.00  0.00    +0.000 NA
ATOM     77  N   GLU A   9       9.049  -4.240   9.073  0.00  0.00    +0.000 N 
ATOM     78  H   GLU A   9       8.985  -3.591   9.855  0.00  0.00    +0.000 HD
ATOM     79  CA  GLU A   9       8.444  -5.563   9.240  0.00  0.00    +0.000 C 
ATOM     80  C   GLU A   9       7.548  -5.924   8.064  0.00  0.00    +0.000 C 
ATOM     81  O   GLU A   9       7.597  -7.050   7.556  0.00  0.00    +0.000 OA
ATOM     82  CB  GLU A   9       7.638  -5.624  10.538  0.00  0.00    +0.000 C 
ATOM     83  CG  GLU A   9       8.481  -5.600  11.801  0.00  0.00    +0.000 C 
ATOM     84  CD  GLU A   9       8.333  -4.307  12.556  0.00  0.00    +0.000 C 
ATOM     85  OE1 GLU A   9       8.628  -3.256  11.951  0.00  0.00    +0.000 OA
ATOM     86  OE2 GLU A   9       7.912  -4.340  13.737  0.00  0.00    +0.000 OA
ATOM     87  N   ASN A  10       6.725  -4.981   7.603  0.00  0.00    +0.000 N 
ATOM     88  H   ASN A  10       6.657  -4.091   8.088  0.00  0.00    +0.000 HD
ATOM     89  CA  ASN A  10       5.810  -5.301   6.519  0.00  0.00    +0.000 C 
ATOM     90  C   ASN A  10       6.550  -5.507   5.202  0.00  0.00    +0.000 C 
ATOM     91  O   ASN A  10       6.097  -6.308   4.375  0.00  0.00    +0.000 OA
ATOM     92  CB  ASN A  10       4.754  -4.207   6.380  0.00  0.00    +0.000 C 
ATOM     93  CG  ASN A  10       3.771  -4.228   7.520  0.00  0.00    +0.000 C 
ATOM     94  OD1 ASN A  10       3.663  -5.234   8.237  0.00  0.00    +0.000 OA
ATOM     95  ND2 ASN A  10       3.034  -3.137   7.699  0.00  0.00    +0.000 N 
ATOM     96 HD21 ASN A  10       2.541  -3.072   8.588  0.00  0.00    +0.000 HD
ATOM     97 HD22 ASN A  10       3.285  -2.301   7.201  0.00  0.00    +0.000 HD
ATOM     98  N   VAL A  11       7.681  -4.806   4.993  0.00  0.00    +0.000 N 
ATOM     99  H   VAL A  11       8.060  -4.245   5.742  0.00  0.00    +0.000 HD
ATOM    100  CA  VAL A  11       8.468  -5.069   3.789  0.00  0.00    +0.000 C 
ATOM    101  C   VAL A  11       9.094  -6.457   3.867  0.00  0.00    +0.000 C 
ATOM    102  O   VAL A  11       9.092  -7.202   2.883  0.00  0.00    +0.000 OA
ATOM    103  CB  VAL A  11       9.525  -3.971   3.564  0.00  0.00    +0.000 C 
ATOM    104  CG1 VAL A  11      10.398  -4.318   2.374  0.00  0.00    +0.000 C 
ATOM    105  CG2 VAL A  11       8.840  -2.616   3.287  0.00  0.00    +0.000 C 
ATOM    106  N   NME A  12       9.590  -6.846   5.045  0.00  0.00    +0.000 N 
ATOM    107  H   NME A  12       9.509  -6.234   5.849  0.00  0.00    +0.000 HD
ATOM    108  C   NME A  12      10.128  -8.200   5.216  0.00  0.00    +0.000 C 
TER 
REMARK  Name = /home/xianyang/aimnet2_score_pipelines/work/L1234-fixed-receptor-eint-20260921/L1/Q96MU7/prepared.pdb
REMARK                            x       y       z     vdW  Elec       q    Type
REMARK                         _______ _______ _______ _____ _____    ______ ____
ATOM      1  CH3 ACE B   1       4.896 -11.961  -2.362  0.00  0.00    +0.000 C 
ATOM      2  C   ACE B   1       3.525 -11.311  -2.404  0.00  0.00    +0.000 C 
ATOM      3  O   ACE B   1       2.727 -11.599  -3.312  0.00  0.00    +0.000 OA
ATOM      4  N   VAL B   2       3.232 -10.461  -1.428  0.00  0.00    +0.000 N 
ATOM      5  H   VAL B   2       3.941 -10.229  -0.747  0.00  0.00    +0.000 HD
ATOM      6  CA  VAL B   2       1.957  -9.760  -1.313  0.00  0.00    +0.000 C 
ATOM      7  C   VAL B   2       2.235  -8.330  -0.877  0.00  0.00    +0.000 C 
ATOM      8  O   VAL B   2       3.254  -8.039  -0.242  0.00  0.00    +0.000 OA
ATOM      9  CB  VAL B   2       0.990 -10.430  -0.302  0.00  0.00    +0.000 C 
ATOM     10  CG1 VAL B   2       0.643 -11.845  -0.759  0.00  0.00    +0.000 C 
ATOM     11  CG2 VAL B   2       1.617 -10.432   1.082  0.00  0.00    +0.000 C 
ATOM     12  N   TRP B   3       1.310  -7.431  -1.217  0.00  0.00    +0.000 N 
ATOM     13  H   TRP B   3       0.490  -7.718  -1.735  0.00  0.00    +0.000 HD
ATOM     14  CA  TRP B   3       1.322  -6.072  -0.694  0.00  0.00    +0.000 C 
ATOM     15  C   TRP B   3      -0.103  -5.559  -0.536  0.00  0.00    +0.000 C 
ATOM     16  O   TRP B   3      -1.015  -5.972  -1.256  0.00  0.00    +0.000 OA
ATOM     17  CB  TRP B   3       2.113  -5.114  -1.600  0.00  0.00    +0.000 C 
ATOM     18  CG  TRP B   3       2.367  -3.801  -0.935  0.00  0.00    +0.000 A 
ATOM     19  CD1 TRP B   3       1.887  -2.564  -1.300  0.00  0.00    +0.000 A 
ATOM     20  CD2 TRP B   3       3.138  -3.592   0.247  0.00  0.00    +0.000 A 
ATOM     21  NE1 TRP B   3       2.331  -1.610  -0.425  0.00  0.00    +0.000 N 
ATOM     22  HE1 TRP B   3       2.113  -0.623  -0.471  0.00  0.00    +0.000 HD
ATOM     23  CE2 TRP B   3       3.083  -2.215   0.549  0.00  0.00    +0.000 A 
ATOM     24  CE3 TRP B   3       3.865  -4.433   1.087  0.00  0.00    +0.000 A 
ATOM     25  CZ2 TRP B   3       3.748  -1.660   1.638  0.00  0.00    +0.000 A 
ATOM     26  CZ3 TRP B   3       4.513  -3.879   2.184  0.00  0.00    +0.000 A 
ATOM     27  CH2 TRP B   3       4.446  -2.502   2.451  0.00  0.00    +0.000 A 
ATOM     28  N   SER B   4      -0.274  -4.654   0.425  0.00  0.00    +0.000 N 
ATOM     29  H   SER B   4       0.539  -4.329   0.934  0.00  0.00    +0.000 HD
ATOM     30  CA  SER B   4      -1.513  -3.914   0.628  0.00  0.00    +0.000 C 
ATOM     31  C   SER B   4      -1.193  -2.448   0.862  0.00  0.00    +0.000 C 
ATOM     32  O   SER B   4      -0.157  -2.099   1.444  0.00  0.00    +0.000 OA
ATOM     33  CB  SER B   4      -2.320  -4.466   1.829  0.00  0.00    +0.000 C 
ATOM     34  OG  SER B   4      -2.627  -5.832   1.617  0.00  0.00    +0.000 OA
ATOM     35  HG  SER B   4      -2.021  -6.347   2.153  0.00  0.00    +0.000 HD
ATOM     36  N   THR B   5      -2.103  -1.582   0.412  0.00  0.00    +0.000 N 
ATOM     37  H   THR B   5      -2.979  -1.913   0.029  0.00  0.00    +0.000 HD
ATOM     38  CA  THR B   5      -1.929  -0.141   0.530  0.00  0.00    +0.000 C 
ATOM     39  C   THR B   5      -3.274   0.501   0.871  0.00  0.00    +0.000 C 
ATOM     40  O   THR B   5      -4.301  -0.173   0.966  0.00  0.00    +0.000 OA
ATOM     41  CB  THR B   5      -1.341   0.444  -0.765  0.00  0.00    +0.000 C 
ATOM     42  OG1 THR B   5      -0.971   1.809  -0.566  0.00  0.00    +0.000 OA
ATOM     43  HG1 THR B   5      -0.036   1.947  -0.343  0.00  0.00    +0.000 HD
ATOM     44  CG2 THR B   5      -2.348   0.336  -1.899  0.00  0.00    +0.000 C 
ATOM     45  N   LEU B   6      -3.254   1.819   1.070  0.00  0.00    +0.000 N 
ATOM     46  H   LEU B   6      -2.413   2.320   0.801  0.00  0.00    +0.000 HD
ATOM     47  CA  LEU B   6      -4.461   2.568   1.408  0.00  0.00    +0.000 C 
ATOM     48  C   LEU B   6      -5.417   2.616   0.214  0.00  0.00    +0.000 C 
ATOM     49  O   LEU B   6      -4.998   2.443  -0.931  0.00  0.00    +0.000 OA
ATOM     50  CB  LEU B   6      -4.093   3.979   1.853  0.00  0.00    +0.000 C 
ATOM     51  CG  LEU B   6      -3.538   4.107   3.275  0.00  0.00    +0.000 C 
ATOM     52  CD1 LEU B   6      -3.558   5.555   3.737  0.00  0.00    +0.000 C 
ATOM     53  CD2 LEU B   6      -4.318   3.224   4.240  0.00  0.00    +0.000 C 
ATOM     54  N   PRO B   7      -6.713   2.866   0.455  0.00  0.00    +0.000 N 
ATOM     55  CA  PRO B   7      -7.696   2.743  -0.641  0.00  0.00    +0.000 C 
ATOM     56  C   PRO B   7      -7.482   3.695  -1.810  0.00  0.00    +0.000 C 
ATOM     57  O   PRO B   7      -7.830   3.338  -2.941  0.00  0.00    +0.000 OA
ATOM     58  CB  PRO B   7      -9.038   3.020   0.058  0.00  0.00    +0.000 C 
ATOM     59  CG  PRO B   7      -8.802   2.699   1.497  0.00  0.00    +0.000 C 
ATOM     60  CD  PRO B   7      -7.366   3.042   1.770  0.00  0.00    +0.000 C 
ATOM     61  N   VAL B   8      -6.946   4.895  -1.587  0.00  0.00    +0.000 N 
ATOM     62  H   VAL B   8      -6.689   5.154  -0.648  0.00  0.00    +0.000 HD
ATOM     63  CA  VAL B   8      -6.694   5.801  -2.707  0.00  0.00    +0.000 C 
ATOM     64  C   VAL B   8      -5.684   5.184  -3.672  0.00  0.00    +0.000 C 
ATOM     65  O   VAL B   8      -5.902   5.138  -4.892  0.00  0.00    +0.000 OA
ATOM     66  CB  VAL B   8      -6.210   7.169  -2.199  0.00  0.00    +0.000 C 
ATOM     67  CG1 VAL B   8      -5.797   8.040  -3.370  0.00  0.00    +0.000 C 
ATOM     68  CG2 VAL B   8      -7.299   7.849  -1.382  0.00  0.00    +0.000 C 
ATOM     69  N   ASN B   9      -4.552   4.718  -3.137  0.00  0.00    +0.000 N 
ATOM     70  H   ASN B   9      -4.450   4.668  -2.136  0.00  0.00    +0.000 HD
ATOM     71  CA  ASN B   9      -3.539   4.086  -3.981  0.00  0.00    +0.000 C 
ATOM     72  C   ASN B   9      -3.976   2.716  -4.482  0.00  0.00    +0.000 C 
ATOM     73  O   ASN B   9      -3.593   2.308  -5.585  0.00  0.00    +0.000 OA
ATOM     74  CB  ASN B   9      -2.227   3.961  -3.216  0.00  0.00    +0.000 C 
ATOM     75  CG  ASN B   9      -1.649   5.296  -2.849  0.00  0.00    +0.000 C 
ATOM     76  OD1 ASN B   9      -1.185   5.503  -1.726  0.00  0.00    +0.000 OA
ATOM     77  ND2 ASN B   9      -1.691   6.231  -3.794  0.00  0.00    +0.000 N 
ATOM     78 HD21 ASN B   9      -1.021   6.966  -3.601  0.00  0.00    +0.000 HD
ATOM     79 HD22 ASN B   9      -2.602   6.477  -4.162  0.00  0.00    +0.000 HD
ATOM     80  N   GLU B  10      -4.746   1.979  -3.684  0.00  0.00    +0.000 N 
ATOM     81  H   GLU B  10      -4.973   2.297  -2.748  0.00  0.00    +0.000 HD
ATOM     82  CA  GLU B  10      -5.261   0.697  -4.142  0.00  0.00    +0.000 C 
ATOM     83  C   GLU B  10      -6.054   0.846  -5.434  0.00  0.00    +0.000 C 
ATOM     84  O   GLU B  10      -5.959   0.003  -6.337  0.00  0.00    +0.000 OA
ATOM     85  CB  GLU B  10      -6.129   0.075  -3.059  0.00  0.00    +0.000 C 
ATOM     86  CG  GLU B  10      -6.695  -1.274  -3.450  0.00  0.00    +0.000 C 
ATOM     87  CD  GLU B  10      -7.686  -1.807  -2.425  0.00  0.00    +0.000 C 
ATOM     88  OE1 GLU B  10      -8.028  -1.066  -1.477  0.00  0.00    +0.000 OA
ATOM     89  OE2 GLU B  10      -8.123  -2.966  -2.565  0.00  0.00    +0.000 OA
ATOM     90  N   NME B  11      -6.840   1.916  -5.543  0.00  0.00    +0.000 N 
ATOM     91  H   NME B  11      -6.921   2.554  -4.759  0.00  0.00    +0.000 HD
ATOM     92  C   NME B  11      -7.610   2.144  -6.759  0.00  0.00    +0.000 C 
TER 
REMARK  Name = /home/xianyang/aimnet2_score_pipelines/work/L1234-fixed-receptor-eint-20260921/L1/Q96MU7/prepared.pdb
REMARK                            x       y       z     vdW  Elec       q    Type
REMARK                         _______ _______ _______ _____ _____    ______ ____
ATOM      1  CH3 ACE C   1      11.233   2.548   0.510  0.00  0.00    +0.000 C 
ATOM      2  C   ACE C   1      10.597   2.671   1.889  0.00  0.00    +0.000 C 
ATOM      3  O   ACE C   1       9.500   3.227   2.016  0.00  0.00    +0.000 OA
ATOM      4  N   VAL C   2      11.279   2.161   2.910  0.00  0.00    +0.000 N 
ATOM      5  H   VAL C   2      12.191   1.769   2.736  0.00  0.00    +0.000 HD
ATOM      6  CA  VAL C   2      10.839   2.300   4.294  0.00  0.00    +0.000 C 
ATOM      7  C   VAL C   2      11.135   3.717   4.760  0.00  0.00    +0.000 C 
ATOM      8  O   VAL C   2      12.232   4.243   4.529  0.00  0.00    +0.000 OA
ATOM      9  CB  VAL C   2      11.537   1.262   5.192  0.00  0.00    +0.000 C 
ATOM     10  CG1 VAL C   2      11.259   1.556   6.664  0.00  0.00    +0.000 C 
ATOM     11  CG2 VAL C   2      11.086  -0.150   4.825  0.00  0.00    +0.000 C 
ATOM     12  N   ARG C   3      10.161   4.336   5.417  0.00  0.00    +0.000 N 
ATOM     13  H   ARG C   3       9.329   3.820   5.681  0.00  0.00    +0.000 HD
ATOM     14  CA  ARG C   3      10.304   5.735   5.801  0.00  0.00    +0.000 C 
ATOM     15  C   ARG C   3      11.494   5.925   6.736  0.00  0.00    +0.000 C 
ATOM     16  O   ARG C   3      11.763   5.095   7.607  0.00  0.00    +0.000 OA
ATOM     17  CB  ARG C   3       9.012   6.226   6.442  0.00  0.00    +0.000 C 
ATOM     18  CG  ARG C   3       7.870   6.256   5.436  0.00  0.00    +0.000 C 
ATOM     19  CD  ARG C   3       6.557   6.621   6.073  0.00  0.00    +0.000 C 
ATOM     20  NE  ARG C   3       6.348   8.062   6.091  0.00  0.00    +0.000 N 
ATOM     21  HE  ARG C   3       7.132   8.648   5.862  0.00  0.00    +0.000 HD
ATOM     22  CZ  ARG C   3       5.272   8.648   6.593  0.00  0.00    +0.000 C 
ATOM     23  NH1 ARG C   3       4.296   7.945   7.143  0.00  0.00    +0.000 N 
ATOM     24 HH11 ARG C   3       3.449   8.382   7.463  0.00  0.00    +0.000 HD
ATOM     25 HH12 ARG C   3       4.413   6.922   7.227  0.00  0.00    +0.000 HD
ATOM     26  NH2 ARG C   3       5.173   9.973   6.541  0.00  0.00    +0.000 N 
ATOM     27 HH21 ARG C   3       5.968  10.524   6.265  0.00  0.00    +0.000 HD
ATOM     28 HH22 ARG C   3       4.428  10.436   7.031  0.00  0.00    +0.000 HD
ATOM     29  N   GLU C   4      12.230   7.008   6.508  0.00  0.00    +0.000 N 
ATOM     30  H   GLU C   4      11.906   7.641   5.802  0.00  0.00    +0.000 HD
ATOM     31  CA  GLU C   4      13.417   7.407   7.259  0.00  0.00    +0.000 C 
ATOM     32  C   GLU C   4      14.580   6.430   7.118  0.00  0.00    +0.000 C 
ATOM     33  O   GLU C   4      15.586   6.569   7.825  0.00  0.00    +0.000 OA
ATOM     34  CB  GLU C   4      13.091   7.625   8.747  0.00  0.00    +0.000 C 
ATOM     35  CG  GLU C   4      11.810   8.405   8.409  0.00  0.00    +0.000 C 
ATOM     36  CD  GLU C   4      10.530   8.295   9.196  0.00  0.00    +0.000 C 
ATOM     37  OE1 GLU C   4       9.927   7.226   9.375  0.00  0.00    +0.000 OA
ATOM     38  OE2 GLU C   4      10.079   9.330   9.688  0.00  0.00    +0.000 OA
ATOM     39  N   NME C   5      14.501   5.453   6.212  0.00  0.00    +0.000 N 
ATOM     40  H   NME C   5      13.628   5.277   5.730  0.00  0.00    +0.000 HD
ATOM     41  C   NME C   5      15.597   4.501   6.094  0.00  0.00    +0.000 C 
TER 
REMARK  Name = /home/xianyang/aimnet2_score_pipelines/work/L1234-fixed-receptor-eint-20260921/L1/Q96MU7/prepared.pdb
REMARK                            x       y       z     vdW  Elec       q    Type
REMARK                         _______ _______ _______ _____ _____    ______ ____
ATOM      1  CH3 ACE D   1      -2.276 -11.061   5.878  0.00  0.00    +0.000 C 
ATOM      2  C   ACE D   1      -2.198 -10.279   7.176  0.00  0.00    +0.000 C 
ATOM      3  O   ACE D   1      -2.929  -9.302   7.376  0.00  0.00    +0.000 OA
ATOM      4  N   HIS D   2      -1.318 -10.701   8.068  0.00  0.00    +0.000 N 
ATOM      5  H   HIS D   2      -0.737 -11.495   7.865  0.00  0.00    +0.000 HD
ATOM      6  CA  HIS D   2      -1.255 -10.092   9.386  0.00  0.00    +0.000 C 
ATOM      7  C   HIS D   2      -0.161  -9.027   9.402  0.00  0.00    +0.000 C 
ATOM      8  O   HIS D   2       0.898  -9.165  10.021  0.00  0.00    +0.000 OA
ATOM      9  CB  HIS D   2      -1.057 -11.169  10.446  0.00  0.00    +0.000 C 
ATOM     10  CG  HIS D   2      -2.158 -12.183  10.461  0.00  0.00    +0.000 A 
ATOM     11  ND1 HIS D   2      -1.953 -13.514  10.166  0.00  0.00    +0.000 N 
ATOM     12  HD1 HIS D   2      -1.059 -13.942   9.990  0.00  0.00    +0.000 HD
ATOM     13  CD2 HIS D   2      -3.484 -12.050  10.694  0.00  0.00    +0.000 A 
ATOM     14  CE1 HIS D   2      -3.104 -14.161  10.238  0.00  0.00    +0.000 A 
ATOM     15  NE2 HIS D   2      -4.048 -13.295  10.556  0.00  0.00    +0.000 NA
ATOM     16  N   TRP D   3      -0.461  -7.944   8.679  0.00  0.00    +0.000 N 
ATOM     17  H   TRP D   3      -1.331  -7.925   8.166  0.00  0.00    +0.000 HD
ATOM     18  CA  TRP D   3       0.420  -6.789   8.633  0.00  0.00    +0.000 C 
ATOM     19  C   TRP D   3       0.660  -6.254  10.035  0.00  0.00    +0.000 C 
ATOM     20  O   TRP D   3      -0.200  -6.348  10.910  0.00  0.00    +0.000 OA
ATOM     21  CB  TRP D   3      -0.190  -5.684   7.757  0.00  0.00    +0.000 C 
ATOM     22  CG  TRP D   3      -0.441  -6.088   6.335  0.00  0.00    +0.000 A 
ATOM     23  CD1 TRP D   3      -1.648  -6.252   5.716  0.00  0.00    +0.000 A 
ATOM     24  CD2 TRP D   3       0.558  -6.369   5.345  0.00  0.00    +0.000 A 
ATOM     25  NE1 TRP D   3      -1.462  -6.634   4.398  0.00  0.00    +0.000 N 
ATOM     26  HE1 TRP D   3      -2.226  -6.944   3.812  0.00  0.00    +0.000 HD
ATOM     27  CE2 TRP D   3      -0.115  -6.708   4.147  0.00  0.00    +0.000 A 
ATOM     28  CE3 TRP D   3       1.960  -6.365   5.355  0.00  0.00    +0.000 A 
ATOM     29  CZ2 TRP D   3       0.568  -7.038   2.969  0.00  0.00    +0.000 A 
ATOM     30  CZ3 TRP D   3       2.640  -6.694   4.172  0.00  0.00    +0.000 A 
ATOM     31  CH2 TRP D   3       1.943  -7.024   3.005  0.00  0.00    +0.000 A 
ATOM     32  N   VAL D   4       1.855  -5.718  10.260  0.00  0.00    +0.000 N 
ATOM     33  H   VAL D   4       2.553  -5.719   9.523  0.00  0.00    +0.000 HD
ATOM     34  CA  VAL D   4       2.122  -4.937  11.460  0.00  0.00    +0.000 C 
ATOM     35  C   VAL D   4       1.535  -3.546  11.235  0.00  0.00    +0.000 C 
ATOM     36  O   VAL D   4       2.050  -2.769  10.426  0.00  0.00    +0.000 OA
ATOM     37  CB  VAL D   4       3.620  -4.879  11.762  0.00  0.00    +0.000 C 
ATOM     38  CG1 VAL D   4       3.911  -3.916  12.894  0.00  0.00    +0.000 C 
ATOM     39  CG2 VAL D   4       4.147  -6.283  12.071  0.00  0.00    +0.000 C 
ATOM     40  N   LEU D   5       0.443  -3.231  11.944  0.00  0.00    +0.000 N 
ATOM     41  H   LEU D   5       0.069  -3.905  12.593  0.00  0.00    +0.000 HD
ATOM     42  CA  LEU D   5      -0.315  -2.010  11.674  0.00  0.00    +0.000 C 
ATOM     43  C   LEU D   5       0.284  -0.829  12.419  0.00  0.00    +0.000 C 
ATOM     44  O   LEU D   5       0.403  -0.883  13.652  0.00  0.00    +0.000 OA
ATOM     45  CB  LEU D   5      -1.770  -2.159  12.084  0.00  0.00    +0.000 C 
ATOM     46  CG  LEU D   5      -2.693  -3.159  11.405  0.00  0.00    +0.000 C 
ATOM     47  CD1 LEU D   5      -2.395  -3.261   9.913  0.00  0.00    +0.000 C 
ATOM     48  CD2 LEU D   5      -2.562  -4.485  12.100  0.00  0.00    +0.000 C 
ATOM     49  N   PRO D   6       0.647   0.249  11.734  0.00  0.00    +0.000 N 
ATOM     50  CA  PRO D   6       1.043   1.468  12.444  0.00  0.00    +0.000 C 
ATOM     51  C   PRO D   6      -0.163   2.161  13.067  0.00  0.00    +0.000 C 
ATOM     52  O   PRO D   6      -1.322   1.885  12.740  0.00  0.00    +0.000 OA
ATOM     53  CB  PRO D   6       1.686   2.333  11.353  0.00  0.00    +0.000 C 
ATOM     54  CG  PRO D   6       1.116   1.816  10.061  0.00  0.00    +0.000 C 
ATOM     55  CD  PRO D   6       0.746   0.372  10.267  0.00  0.00    +0.000 C 
ATOM     56  N   ALA D   7       0.136   3.062  14.002  0.00  0.00    +0.000 N 
ATOM     57  H   ALA D   7       1.098   3.232  14.238  0.00  0.00    +0.000 HD
ATOM     58  CA  ALA D   7      -0.894   3.848  14.669  0.00  0.00    +0.000 C 
ATOM     59  C   ALA D   7      -1.812   4.511  13.650  0.00  0.00    +0.000 C 
ATOM     60  O   ALA D   7      -1.350   5.143  12.699  0.00  0.00    +0.000 OA
ATOM     61  CB  ALA D   7      -0.242   4.906  15.564  0.00  0.00    +0.000 C 
ATOM     62  N   GLY D   8      -3.118   4.340  13.846  0.00  0.00    +0.000 N 
ATOM     63  H   GLY D   8      -3.423   3.779  14.625  0.00  0.00    +0.000 HD
ATOM     64  CA  GLY D   8      -4.109   4.923  12.966  0.00  0.00    +0.000 C 
ATOM     65  C   GLY D   8      -4.555   4.051  11.810  0.00  0.00    +0.000 C 
ATOM     66  O   GLY D   8      -5.454   4.459  11.062  0.00  0.00    +0.000 OA
ATOM     67  N   MET D   9      -3.967   2.871  11.634  0.00  0.00    +0.000 N 
ATOM     68  H   MET D   9      -3.183   2.614  12.226  0.00  0.00    +0.000 HD
ATOM     69  CA  MET D   9      -4.317   1.980  10.536  0.00  0.00    +0.000 C 
ATOM     70  C   MET D   9      -5.048   0.760  11.077  0.00  0.00    +0.000 C 
ATOM     71  O   MET D   9      -4.605   0.144  12.053  0.00  0.00    +0.000 OA
ATOM     72  CB  MET D   9      -3.072   1.549   9.755  0.00  0.00    +0.000 C 
ATOM     73  CG  MET D   9      -1.856   2.483  10.033  0.00  0.00    +0.000 C 
ATOM     74  SD  MET D   9      -1.661   4.265   9.716  0.00  0.00    +0.000 S 
ATOM     75  CE  MET D   9      -3.100   5.279  10.265  0.00  0.00    +0.000 C 
ATOM     76  N   SER D  10      -6.169   0.424  10.447  0.00  0.00    +0.000 N 
ATOM     77  H   SER D  10      -6.444   0.996   9.655  0.00  0.00    +0.000 HD
ATOM     78  CA  SER D  10      -6.914  -0.783  10.755  0.00  0.00    +0.000 C 
ATOM     79  C   SER D  10      -6.694  -1.801   9.648  0.00  0.00    +0.000 C 
ATOM     80  O   SER D  10      -6.367  -1.442   8.514  0.00  0.00    +0.000 OA
ATOM     81  CB  SER D  10      -8.413  -0.492  10.907  0.00  0.00    +0.000 C 
ATOM     82  OG  SER D  10      -8.866   0.704  11.531  0.00  0.00    +0.000 OA
ATOM     83  HG  SER D  10      -8.196   1.062  12.130  0.00  0.00    +0.000 HD
ATOM     84  N   ALA D  11      -6.871  -3.080   9.993  0.00  0.00    +0.000 NA
ATOM     85  H   ALA D  11      -6.392  -3.376  10.829  0.00  0.00    +0.000 HD
ATOM     86  CA  ALA D  11      -6.807  -4.132   8.984  0.00  0.00    +0.000 C 
ATOM     87  C   ALA D  11      -7.726  -3.823   7.806  0.00  0.00    +0.000 C 
ATOM     88  O   ALA D  11      -7.384  -4.103   6.651  0.00  0.00    +0.000 OA
ATOM     89  CB  ALA D  11      -7.166  -5.479   9.611  0.00  0.00    +0.000 C 
ATOM     90  N   LYS D  12      -8.884  -3.211   8.083  0.00  0.00    +0.000 NA
ATOM     91  H   LYS D  12      -9.251  -4.122   8.461  0.00  0.00    +0.000 HD
ATOM     92  CA  LYS D  12      -9.860  -2.914   7.039  0.00  0.00    +0.000 C 
ATOM     93  C   LYS D  12      -9.326  -1.918   6.014  0.00  0.00    +0.000 C 
ATOM     94  O   LYS D  12      -9.700  -1.987   4.837  0.00  0.00    +0.000 OA
ATOM     95  CB  LYS D  12     -11.150  -2.384   7.672  0.00  0.00    +0.000 C 
ATOM     96  CG  LYS D  12     -10.873  -2.035   9.067  0.00  0.00    +0.000 C 
ATOM     97  CD  LYS D  12      -9.476  -2.636   8.927  0.00  0.00    +0.000 C 
ATOM     98  NZ  LYS D  12      -7.909  -2.049  10.632  0.00  0.00    +0.000 N 
ATOM     99  HZ1 LYS D  12      -8.321  -3.038  10.629  0.00  0.00    +0.000 HD
ATOM    100  HZ2 LYS D  12      -7.451  -2.480  11.455  0.00  0.00    +0.000 HD
ATOM    101  HZ3 LYS D  12      -8.002  -1.861  11.659  0.00  0.00    +0.000 HD
ATOM    102  N   MET D  13      -8.463  -0.988   6.435  0.00  0.00    +0.000 N 
ATOM    103  H   MET D  13      -8.076  -1.042   7.364  0.00  0.00    +0.000 HD
ATOM    104  CA  MET D  13      -7.873  -0.038   5.493  0.00  0.00    +0.000 C 
ATOM    105  C   MET D  13      -6.942  -0.736   4.506  0.00  0.00    +0.000 C 
ATOM    106  O   MET D  13      -6.745  -0.251   3.385  0.00  0.00    +0.000 OA
ATOM    107  CB  MET D  13      -7.117   1.055   6.252  0.00  0.00    +0.000 C 
ATOM    108  CG  MET D  13      -7.939   1.770   7.317  0.00  0.00    +0.000 C 
ATOM    109  SD  MET D  13      -6.966   2.985   8.246  0.00  0.00    +0.000 S 
ATOM    110  CE  MET D  13      -8.190   3.604   9.397  0.00  0.00    +0.000 C 
ATOM    111  N   LEU D  14      -6.366  -1.872   4.902  0.00  0.00    +0.000 N 
ATOM    112  H   LEU D  14      -6.601  -2.255   5.805  0.00  0.00    +0.000 HD
ATOM    113  CA  LEU D  14      -5.496  -2.668   4.045  0.00  0.00    +0.000 C 
ATOM    114  C   LEU D  14      -6.180  -3.939   3.553  0.00  0.00    +0.000 C 
ATOM    115  O   LEU D  14      -5.513  -4.960   3.339  0.00  0.00    +0.000 OA
ATOM    116  CB  LEU D  14      -4.209  -3.025   4.787  0.00  0.00    +0.000 C 
ATOM    117  CG  LEU D  14      -3.522  -1.943   5.614  0.00  0.00    +0.000 C 
ATOM    118  CD1 LEU D  14      -2.321  -2.545   6.315  0.00  0.00    +0.000 C 
ATOM    119  CD2 LEU D  14      -3.114  -0.754   4.764  0.00  0.00    +0.000 C 
ATOM    120  N   GLY D  15      -7.501  -3.895   3.370  0.00  0.00    +0.000 N 
ATOM    121  H   GLY D  15      -8.000  -3.029   3.521  0.00  0.00    +0.000 HD
ATOM    122  CA  GLY D  15      -8.237  -5.111   3.065  0.00  0.00    +0.000 C 
ATOM    123  C   GLY D  15      -7.801  -5.757   1.765  0.00  0.00    +0.000 C 
ATOM    124  O   GLY D  15      -7.690  -6.983   1.676  0.00  0.00    +0.000 OA
ATOM    125  N   NME D  16      -7.543  -4.945   0.742  0.00  0.00    +0.000 N 
ATOM    126  H   NME D  16      -7.661  -3.947   0.839  0.00  0.00    +0.000 HD
ATOM    127  C   NME D  16      -7.178  -5.484  -0.556  0.00  0.00    +0.000 C 
TER 
REMARK  Name = /home/xianyang/aimnet2_score_pipelines/work/L1234-fixed-receptor-eint-20260921/L1/Q96MU7/prepared.pdb
REMARK                            x       y       z     vdW  Elec       q    Type
REMARK                         _______ _______ _______ _____ _____    ______ ____
ATOM      1  CE  LYS D  12      -9.313  -2.137  10.328  0.00  0.00    +0.000 C 
TER 
REMARK  Name = /home/xianyang/aimnet2_score_pipelines/work/L1234-fixed-receptor-eint-20260921/L1/Q96MU7/prepared.pdb
REMARK                            x       y       z     vdW  Elec       q    Type
REMARK                         _______ _______ _______ _____ _____    ______ ____
ATOM      1  CH3 ACE E   1      13.641   9.496  -3.620  0.00  0.00    +0.000 C 
ATOM      2  C   ACE E   1      12.500  10.225  -2.917  0.00  0.00    +0.000 C 
ATOM      3  O   ACE E   1      11.873   9.673  -2.004  0.00  0.00    +0.000 OA
ATOM      4  N   ILE E   2      12.196  11.445  -3.354  0.00  0.00    +0.000 N 
ATOM      5  H   ILE E   2      12.684  11.815  -4.154  0.00  0.00    +0.000 HD
ATOM      6  CA  ILE E   2      11.162  12.259  -2.729  0.00  0.00    +0.000 C 
ATOM      7  C   ILE E   2       9.806  11.859  -3.283  0.00  0.00    +0.000 C 
ATOM      8  O   ILE E   2       9.600  11.832  -4.501  0.00  0.00    +0.000 OA
ATOM      9  CB  ILE E   2      11.426  13.754  -2.974  0.00  0.00    +0.000 C 
ATOM     10  CG1 ILE E   2      12.772  14.168  -2.374  0.00  0.00    +0.000 C 
ATOM     11  CG2 ILE E   2      10.293  14.592  -2.415  0.00  0.00    +0.000 C 
ATOM     12  CD1 ILE E   2      13.028  15.648  -2.432  0.00  0.00    +0.000 C 
ATOM     13  N   GLY E   3       8.873  11.574  -2.398  0.00  0.00    +0.000 N 
ATOM     14  H   GLY E   3       9.083  11.655  -1.418  0.00  0.00    +0.000 HD
ATOM     15  CA  GLY E   3       7.514  11.300  -2.811  0.00  0.00    +0.000 C 
ATOM     16  C   GLY E   3       6.764  10.597  -1.713  0.00  0.00    +0.000 C 
ATOM     17  O   GLY E   3       7.349   9.973  -0.821  0.00  0.00    +0.000 OA
ATOM     18  N   ARG E   4       5.443  10.701  -1.793  0.00  0.00    +0.000 N 
ATOM     19  H   ARG E   4       5.040  11.177  -2.590  0.00  0.00    +0.000 HD
ATOM     20  CA  ARG E   4       4.558  10.012  -0.875  0.00  0.00    +0.000 C 
ATOM     21  C   ARG E   4       4.243   8.616  -1.402  0.00  0.00    +0.000 C 
ATOM     22  O   ARG E   4       4.530   8.282  -2.556  0.00  0.00    +0.000 OA
ATOM     23  CB  ARG E   4       3.270  10.817  -0.677  0.00  0.00    +0.000 C 
ATOM     24  CG  ARG E   4       2.423  10.072   0.359  0.00  0.00    +0.000 C 
ATOM     25  CD  ARG E   4       3.383   9.224   1.225  0.00  0.00    +0.000 C 
ATOM     26  NE  ARG E   4       3.026   8.037   2.024  0.00  0.00    +0.000 N 
ATOM     27  HE  ARG E   4       3.687   7.291   1.918  0.00  0.00    +0.000 HD
ATOM     28  CZ  ARG E   4       2.058   7.591   2.823  0.00  0.00    +0.000 C 
ATOM     29  NH1 ARG E   4       0.942   8.249   3.147  0.00  0.00    +0.000 N 
ATOM     30 HH11 ARG E   4       0.182   7.768   3.600  0.00  0.00    +0.000 HD
ATOM     31 HH12 ARG E   4       0.763   9.137   2.704  0.00  0.00    +0.000 HD
ATOM     32  NH2 ARG E   4       2.267   6.364   3.326  0.00  0.00    +0.000 N 
ATOM     33 HH21 ARG E   4       2.979   5.753   2.957  0.00  0.00    +0.000 HD
ATOM     34 HH22 ARG E   4       1.512   5.913   3.813  0.00  0.00    +0.000 HD
ATOM     35  N   ASP E   5       3.662   7.792  -0.531  0.00  0.00    +0.000 N 
ATOM     36  H   ASP E   5       4.011   7.831   0.394  0.00  0.00    +0.000 HD
ATOM     37  CA  ASP E   5       3.206   6.467  -0.921  0.00  0.00    +0.000 C 
ATOM     38  C   ASP E   5       2.271   6.572  -2.113  0.00  0.00    +0.000 C 
ATOM     39  O   ASP E   5       1.299   7.333  -2.088  0.00  0.00    +0.000 OA
ATOM     40  CB  ASP E   5       2.511   5.777   0.258  0.00  0.00    +0.000 C 
ATOM     41  CG  ASP E   5       2.079   4.353  -0.061  0.00  0.00    +0.000 C 
ATOM     42  OD1 ASP E   5       2.947   3.517  -0.392  0.00  0.00    +0.000 OA
ATOM     43  OD2 ASP E   5       0.867   4.064   0.026  0.00  0.00    +0.000 OA
ATOM     44  N   GLY E   6       2.609   5.855  -3.185  0.00  0.00    +0.000 N 
ATOM     45  H   GLY E   6       3.399   5.221  -3.143  0.00  0.00    +0.000 HD
ATOM     46  CA  GLY E   6       1.821   5.865  -4.398  0.00  0.00    +0.000 C 
ATOM     47  C   GLY E   6       2.240   6.861  -5.458  0.00  0.00    +0.000 C 
ATOM     48  O   GLY E   6       1.620   6.882  -6.522  0.00  0.00    +0.000 OA
ATOM     49  N   GLN E   7       3.273   7.674  -5.215  0.00  0.00    +0.000 N 
ATOM     50  H   GLN E   7       3.737   7.624  -4.315  0.00  0.00    +0.000 HD
ATOM     51  CA  GLN E   7       3.703   8.660  -6.204  0.00  0.00    +0.000 C 
ATOM     52  C   GLN E   7       4.106   7.968  -7.506  0.00  0.00    +0.000 C 
ATOM     53  O   GLN E   7       4.942   7.048  -7.507  0.00  0.00    +0.000 OA
ATOM     54  CB  GLN E   7       4.872   9.467  -5.650  0.00  0.00    +0.000 C 
ATOM     55  CG  GLN E   7       5.574  10.332  -6.691  0.00  0.00    +0.000 C 
ATOM     56  CD  GLN E   7       4.721  11.485  -7.198  0.00  0.00    +0.000 C 
ATOM     57  OE1 GLN E   7       4.307  12.349  -6.419  0.00  0.00    +0.000 OA
ATOM     58  NE2 GLN E   7       4.465  11.510  -8.512  0.00  0.00    +0.000 N 
ATOM     59 HE21 GLN E   7       3.965  12.317  -8.848  0.00  0.00    +0.000 HD
ATOM     60 HE22 GLN E   7       4.853  10.817  -9.126  0.00  0.00    +0.000 HD
ATOM     61  N   NME E   8       3.503   8.379  -8.623  0.00  0.00    +0.000 N 
ATOM     62  H   NME E   8       2.748   9.045  -8.578  0.00  0.00    +0.000 HD
ATOM     63  C   NME E   8       3.849   7.714  -9.873  0.00  0.00    +0.000 C 
TER 
