REMARK  Name = /home/xianyang/aimnet2_score_pipelines/work/L1234-fixed-receptor-eint-20260921/L2/P56817/prepared.pdb
REMARK                            x       y       z     vdW  Elec       q    Type
REMARK                         _______ _______ _______ _____ _____    ______ ____
ATOM      1  CH3 ACE A   1      73.502  53.956  -7.188  0.00  0.00    +0.000 C 
ATOM      2  C   ACE A   1      74.756  53.133  -7.330  0.00  0.00    +0.000 C 
ATOM      3  O   ACE A   1      75.067  52.625  -8.409  0.00  0.00    +0.000 OA
ATOM      4  N   ARG A   2      75.444  52.981  -6.202  0.00  0.00    +0.000 N 
ATOM      5  H   ARG A   2      75.085  53.430  -5.360  0.00  0.00    +0.000 HD
ATOM      6  CA  ARG A   2      76.638  52.177  -6.092  0.00  0.00    +0.000 C 
ATOM      7  C   ARG A   2      76.590  51.354  -4.820  0.00  0.00    +0.000 C 
ATOM      8  O   ARG A   2      75.777  51.607  -3.931  0.00  0.00    +0.000 OA
ATOM      9  CB  ARG A   2      77.859  53.088  -6.046  0.00  0.00    +0.000 C 
ATOM     10  CG  ARG A   2      78.161  53.784  -7.354  0.00  0.00    +0.000 C 
ATOM     11  CD  ARG A   2      78.820  52.828  -8.330  0.00  0.00    +0.000 C 
ATOM     12  NE  ARG A   2      79.002  53.420  -9.658  0.00  0.00    +0.000 N 
ATOM     13  HE  ARG A   2      79.860  53.917  -9.825  0.00  0.00    +0.000 HD
ATOM     14  CZ  ARG A   2      78.115  53.367 -10.652  0.00  0.00    +0.000 C 
ATOM     15  NH1 ARG A   2      76.936  52.749 -10.500  0.00  0.00    +0.000 N 
ATOM     16 HH11 ARG A   2      76.281  52.710 -11.256  0.00  0.00    +0.000 HD
ATOM     17 HH12 ARG A   2      76.592  52.514  -9.573  0.00  0.00    +0.000 HD
ATOM     18  NH2 ARG A   2      78.411  53.945 -11.814  0.00  0.00    +0.000 N 
ATOM     19 HH21 ARG A   2      79.313  54.362 -11.965  0.00  0.00    +0.000 HD
ATOM     20 HH22 ARG A   2      77.752  53.928 -12.571  0.00  0.00    +0.000 HD
ATOM     21  N   GLY A   3      77.486  50.382  -4.726  0.00  0.00    +0.000 N 
ATOM     22  H   GLY A   3      78.052  50.147  -5.529  0.00  0.00    +0.000 HD
ATOM     23  CA  GLY A   3      77.606  49.558  -3.541  0.00  0.00    +0.000 C 
ATOM     24  C   GLY A   3      78.551  48.389  -3.722  0.00  0.00    +0.000 C 
ATOM     25  O   GLY A   3      79.143  48.210  -4.780  0.00  0.00    +0.000 OA
ATOM     26  N   LYS A   4      78.703  47.608  -2.669  0.00  0.00    +0.000 N 
ATOM     27  H   LYS A   4      78.133  47.789  -1.851  0.00  0.00    +0.000 HD
ATOM     28  CA  LYS A   4      79.392  46.326  -2.742  0.00  0.00    +0.000 C 
ATOM     29  C   LYS A   4      78.432  45.262  -2.270  0.00  0.00    +0.000 C 
ATOM     30  O   LYS A   4      77.532  45.543  -1.473  0.00  0.00    +0.000 OA
ATOM     31  CB  LYS A   4      80.630  46.325  -1.844  0.00  0.00    +0.000 C 
ATOM     32  CG  LYS A   4      81.734  47.288  -2.266  0.00  0.00    +0.000 C 
ATOM     33  CD  LYS A   4      82.477  46.765  -3.483  0.00  0.00    +0.000 C 
ATOM     34  CE  LYS A   4      83.766  47.533  -3.733  0.00  0.00    +0.000 C 
ATOM     35  NZ  LYS A   4      84.316  47.207  -5.080  0.00  0.00    +0.000 N 
ATOM     36  HZ1 LYS A   4      85.272  47.565  -5.177  0.00  0.00    +0.000 HD
ATOM     37  HZ2 LYS A   4      84.312  46.191  -5.208  0.00  0.00    +0.000 HD
ATOM     38  HZ3 LYS A   4      83.694  47.601  -5.804  0.00  0.00    +0.000 HD
ATOM     39  N   SER A   5      78.633  44.028  -2.738  0.00  0.00    +0.000 N 
ATOM     40  H   SER A   5      79.375  43.881  -3.410  0.00  0.00    +0.000 HD
ATOM     41  CA  SER A   5      77.762  42.910  -2.357  0.00  0.00    +0.000 C 
ATOM     42  C   SER A   5      77.593  42.802  -0.858  0.00  0.00    +0.000 C 
ATOM     43  O   SER A   5      78.568  42.827  -0.089  0.00  0.00    +0.000 OA
ATOM     44  CB  SER A   5      78.285  41.577  -2.918  0.00  0.00    +0.000 C 
ATOM     45  OG  SER A   5      78.367  41.652  -4.328  0.00  0.00    +0.000 OA
ATOM     46  HG  SER A   5      79.060  42.269  -4.587  0.00  0.00    +0.000 HD
ATOM     47  N   GLY A   6      76.339  42.730  -0.427  0.00  0.00    +0.000 N 
ATOM     48  H   GLY A   6      75.584  42.774  -1.092  0.00  0.00    +0.000 HD
ATOM     49  CA  GLY A   6      76.039  42.561   0.978  0.00  0.00    +0.000 C 
ATOM     50  C   GLY A   6      76.202  43.809   1.825  0.00  0.00    +0.000 C 
ATOM     51  O   GLY A   6      75.970  43.748   3.028  0.00  0.00    +0.000 OA
ATOM     52  N   GLN A   7      76.589  44.937   1.226  0.00  0.00    +0.000 N 
ATOM     53  H   GLN A   7      76.865  44.920   0.250  0.00  0.00    +0.000 HD
ATOM     54  CA  GLN A   7      76.781  46.187   1.992  0.00  0.00    +0.000 C 
ATOM     55  C   GLN A   7      75.798  47.302   1.643  0.00  0.00    +0.000 C 
ATOM     56  O   GLN A   7      75.946  48.426   2.127  0.00  0.00    +0.000 OA
ATOM     57  CB  GLN A   7      78.208  46.720   1.810  0.00  0.00    +0.000 C 
ATOM     58  CG  GLN A   7      79.278  45.788   2.330  0.00  0.00    +0.000 C 
ATOM     59  CD  GLN A   7      80.684  46.371   2.222  0.00  0.00    +0.000 C 
ATOM     60  OE1 GLN A   7      80.913  47.379   1.557  0.00  0.00    +0.000 OA
ATOM     61  NE2 GLN A   7      81.627  45.728   2.876  0.00  0.00    +0.000 N 
ATOM     62 HE21 GLN A   7      81.394  45.053   3.565  0.00  0.00    +0.000 HD
ATOM     63 HE22 GLN A   7      82.510  46.223   2.926  0.00  0.00    +0.000 HD
ATOM     64  N   GLY A   8      74.818  47.000   0.796  0.00  0.00    +0.000 N 
ATOM     65  H   GLY A   8      74.800  46.079   0.391  0.00  0.00    +0.000 HD
ATOM     66  CA  GLY A   8      73.751  47.937   0.467  0.00  0.00    +0.000 C 
ATOM     67  C   GLY A   8      74.004  48.776  -0.769  0.00  0.00    +0.000 C 
ATOM     68  O   GLY A   8      75.069  48.717  -1.365  0.00  0.00    +0.000 OA
ATOM     69  N   TYR A   9      72.980  49.529  -1.159  0.00  0.00    +0.000 N 
ATOM     70  H   TYR A   9      72.141  49.543  -0.598  0.00  0.00    +0.000 HD
ATOM     71  CA  TYR A   9      73.021  50.422  -2.305  0.00  0.00    +0.000 C 
ATOM     72  C   TYR A   9      72.950  51.850  -1.795  0.00  0.00    +0.000 C 
ATOM     73  O   TYR A   9      72.033  52.188  -1.040  0.00  0.00    +0.000 OA
ATOM     74  CB  TYR A   9      71.836  50.157  -3.233  0.00  0.00    +0.000 C 
ATOM     75  CG  TYR A   9      71.875  48.810  -3.888  0.00  0.00    +0.000 A 
ATOM     76  CD1 TYR A   9      71.503  47.673  -3.191  0.00  0.00    +0.000 A 
ATOM     77  CD2 TYR A   9      72.303  48.667  -5.213  0.00  0.00    +0.000 A 
ATOM     78  CE1 TYR A   9      71.539  46.419  -3.792  0.00  0.00    +0.000 A 
ATOM     79  CE2 TYR A   9      72.343  47.422  -5.811  0.00  0.00    +0.000 A 
ATOM     80  CZ  TYR A   9      71.964  46.312  -5.097  0.00  0.00    +0.000 A 
ATOM     81  OH  TYR A   9      72.001  45.081  -5.688  0.00  0.00    +0.000 OA
ATOM     82  HH  TYR A   9      71.658  44.325  -5.168  0.00  0.00    +0.000 HD
ATOM     83  N   TYR A  10      73.908  52.673  -2.202  0.00  0.00    +0.000 N 
ATOM     84  H   TYR A  10      74.630  52.336  -2.828  0.00  0.00    +0.000 HD
ATOM     85  CA  TYR A  10      73.969  54.062  -1.747  0.00  0.00    +0.000 C 
ATOM     86  C   TYR A  10      73.920  55.058  -2.890  0.00  0.00    +0.000 C 
ATOM     87  O   TYR A  10      74.302  54.745  -4.016  0.00  0.00    +0.000 OA
ATOM     88  CB  TYR A  10      75.207  54.296  -0.847  0.00  0.00    +0.000 C 
ATOM     89  CG  TYR A  10      76.581  54.085  -1.505  0.00  0.00    +0.000 A 
ATOM     90  CD1 TYR A  10      77.138  55.049  -2.321  0.00  0.00    +0.000 A 
ATOM     91  CD2 TYR A  10      77.325  52.937  -1.253  0.00  0.00    +0.000 A 
ATOM     92  CE1 TYR A  10      78.381  54.863  -2.910  0.00  0.00    +0.000 A 
ATOM     93  CE2 TYR A  10      78.562  52.736  -1.827  0.00  0.00    +0.000 A 
ATOM     94  CZ  TYR A  10      79.084  53.700  -2.660  0.00  0.00    +0.000 A 
ATOM     95  OH  TYR A  10      80.319  53.486  -3.212  0.00  0.00    +0.000 OA
ATOM     96  HH  TYR A  10      81.053  53.850  -2.699  0.00  0.00    +0.000 HD
ATOM     97  N   NME A  11      73.444  56.264  -2.564  0.00  0.00    +0.000 N 
ATOM     98  H   NME A  11      73.107  56.386  -1.612  0.00  0.00    +0.000 HD
ATOM     99  C   NME A  11      73.309  57.361  -3.486  0.00  0.00    +0.000 C 
TER 
REMARK  Name = /home/xianyang/aimnet2_score_pipelines/work/L1234-fixed-receptor-eint-20260921/L2/P56817/prepared.pdb
REMARK                            x       y       z     vdW  Elec       q    Type
REMARK                         _______ _______ _______ _____ _____    ______ ____
ATOM      1  CH3 ACE B   1      77.278  58.534   0.430  0.00  0.00    +0.000 C 
ATOM      2  C   ACE B   1      76.278  57.962   1.417  0.00  0.00    +0.000 C 
ATOM      3  O   ACE B   1      76.613  57.683   2.562  0.00  0.00    +0.000 OA
ATOM      4  N   ILE B   2      75.044  57.776   0.949  0.00  0.00    +0.000 N 
ATOM      5  H   ILE B   2      74.863  57.985  -0.018  0.00  0.00    +0.000 HD
ATOM      6  CA  ILE B   2      73.910  57.469   1.816  0.00  0.00    +0.000 C 
ATOM      7  C   ILE B   2      73.149  56.231   1.344  0.00  0.00    +0.000 C 
ATOM      8  O   ILE B   2      72.662  56.166   0.223  0.00  0.00    +0.000 OA
ATOM      9  CB  ILE B   2      72.939  58.673   1.900  0.00  0.00    +0.000 C 
ATOM     10  CG1 ILE B   2      73.664  59.945   2.353  0.00  0.00    +0.000 C 
ATOM     11  CG2 ILE B   2      71.786  58.364   2.839  0.00  0.00    +0.000 C 
ATOM     12  CD1 ILE B   2      74.271  59.906   3.744  0.00  0.00    +0.000 C 
ATOM     13  N   LEU B   3      73.038  55.257   2.237  0.00  0.00    +0.000 N 
ATOM     14  H   LEU B   3      73.436  55.389   3.161  0.00  0.00    +0.000 HD
ATOM     15  CA  LEU B   3      72.304  54.028   1.977  0.00  0.00    +0.000 C 
ATOM     16  C   LEU B   3      70.838  54.305   1.689  0.00  0.00    +0.000 C 
ATOM     17  O   LEU B   3      70.172  54.970   2.475  0.00  0.00    +0.000 OA
ATOM     18  CB  LEU B   3      72.395  53.107   3.183  0.00  0.00    +0.000 C 
ATOM     19  CG  LEU B   3      71.686  51.757   3.026  0.00  0.00    +0.000 C 
ATOM     20  CD1 LEU B   3      72.636  50.804   2.351  0.00  0.00    +0.000 C 
ATOM     21  CD2 LEU B   3      71.231  51.184   4.348  0.00  0.00    +0.000 C 
ATOM     22  N   VAL B   4      70.345  53.750   0.581  0.00  0.00    +0.000 N 
ATOM     23  H   VAL B   4      70.946  53.166   0.010  0.00  0.00    +0.000 HD
ATOM     24  CA  VAL B   4      68.944  53.893   0.187  0.00  0.00    +0.000 C 
ATOM     25  C   VAL B   4      68.107  52.818   0.889  0.00  0.00    +0.000 C 
ATOM     26  O   VAL B   4      68.297  51.628   0.663  0.00  0.00    +0.000 OA
ATOM     27  CB  VAL B   4      68.785  53.819  -1.346  0.00  0.00    +0.000 C 
ATOM     28  CG1 VAL B   4      67.310  53.733  -1.726  0.00  0.00    +0.000 C 
ATOM     29  CG2 VAL B   4      69.450  55.035  -1.992  0.00  0.00    +0.000 C 
ATOM     30  N   ASP B   5      67.199  53.239   1.763  0.00  0.00    +0.000 N 
ATOM     31  H   ASP B   5      67.095  54.228   1.969  0.00  0.00    +0.000 HD
ATOM     32  CA  ASP B   5      66.510  52.311   2.662  0.00  0.00    +0.000 C 
ATOM     33  C   ASP B   5      64.993  52.517   2.651  0.00  0.00    +0.000 C 
ATOM     34  O   ASP B   5      64.484  53.407   3.337  0.00  0.00    +0.000 OA
ATOM     35  CB  ASP B   5      67.064  52.483   4.093  0.00  0.00    +0.000 C 
ATOM     36  CG  ASP B   5      66.538  51.431   5.076  0.00  0.00    +0.000 C 
ATOM     37  OD1 ASP B   5      65.936  50.430   4.639  0.00  0.00    +0.000 OA
ATOM     38  OD2 ASP B   5      66.747  51.580   6.306  0.00  0.00    +0.000 OA
ATOM     39  N   THR B   6      64.267  51.666   1.919  0.00  0.00    +0.000 N 
ATOM     40  H   THR B   6      64.728  50.945   1.375  0.00  0.00    +0.000 HD
ATOM     41  CA  THR B   6      62.803  51.734   1.935  0.00  0.00    +0.000 C 
ATOM     42  C   THR B   6      62.170  51.111   3.194  0.00  0.00    +0.000 C 
ATOM     43  O   THR B   6      60.955  51.159   3.358  0.00  0.00    +0.000 OA
ATOM     44  CB  THR B   6      62.153  51.135   0.661  0.00  0.00    +0.000 C 
ATOM     45  OG1 THR B   6      62.381  49.721   0.591  0.00  0.00    +0.000 OA
ATOM     46  HG1 THR B   6      61.679  49.281   1.103  0.00  0.00    +0.000 HD
ATOM     47  CG2 THR B   6      62.694  51.833  -0.593  0.00  0.00    +0.000 C 
ATOM     48  N   GLY B   7      62.999  50.567   4.088  0.00  0.00    +0.000 N 
ATOM     49  H   GLY B   7      64.003  50.514   3.911  0.00  0.00    +0.000 HD
ATOM     50  CA  GLY B   7      62.529  49.947   5.331  0.00  0.00    +0.000 C 
ATOM     51  C   GLY B   7      62.622  50.772   6.604  0.00  0.00    +0.000 C 
ATOM     52  O   GLY B   7      62.361  50.250   7.703  0.00  0.00    +0.000 OA
ATOM     53  N   SER B   8      62.981  52.041   6.467  0.00  0.00    +0.000 N 
ATOM     54  H   SER B   8      63.339  52.350   5.568  0.00  0.00    +0.000 HD
ATOM     55  CA  SER B   8      62.992  52.991   7.579  0.00  0.00    +0.000 C 
ATOM     56  C   SER B   8      62.675  54.410   7.081  0.00  0.00    +0.000 C 
ATOM     57  O   SER B   8      62.500  54.623   5.890  0.00  0.00    +0.000 OA
ATOM     58  CB  SER B   8      64.350  52.940   8.290  0.00  0.00    +0.000 C 
ATOM     59  OG  SER B   8      65.355  53.434   7.437  0.00  0.00    +0.000 OA
ATOM     60  HG  SER B   8      65.812  52.672   6.977  0.00  0.00    +0.000 HD
ATOM     61  N   SER B   9      62.570  55.374   7.996  0.00  0.00    +0.000 N 
ATOM     62  H   SER B   9      62.691  55.132   8.966  0.00  0.00    +0.000 HD
ATOM     63  CA  SER B   9      62.012  56.695   7.659  0.00  0.00    +0.000 C 
ATOM     64  C   SER B   9      62.805  57.885   8.213  0.00  0.00    +0.000 C 
ATOM     65  O   SER B   9      62.335  59.034   8.127  0.00  0.00    +0.000 OA
ATOM     66  CB  SER B   9      60.534  56.755   8.131  0.00  0.00    +0.000 C 
ATOM     67  OG  SER B   9      59.794  55.634   7.624  0.00  0.00    +0.000 OA
ATOM     68  HG  SER B   9      60.417  55.038   7.160  0.00  0.00    +0.000 HD
ATOM     69  N   NME B  10      64.002  57.628   8.760  0.00  0.00    +0.000 N 
ATOM     70  H   NME B  10      64.348  56.681   8.727  0.00  0.00    +0.000 HD
ATOM     71  C   NME B  10      64.904  58.693   9.210  0.00  0.00    +0.000 C 
TER 
REMARK  Name = /home/xianyang/aimnet2_score_pipelines/work/L1234-fixed-receptor-eint-20260921/L2/P56817/prepared.pdb
REMARK                            x       y       z     vdW  Elec       q    Type
REMARK                         _______ _______ _______ _____ _____    ______ ____
ATOM      1  CH3 ACE C   1      67.415  54.177  17.716  0.00  0.00    +0.000 C 
ATOM      2  C   ACE C   1      68.062  52.813  17.827  0.00  0.00    +0.000 C 
ATOM      3  O   ACE C   1      69.086  52.568  17.201  0.00  0.00    +0.000 OA
ATOM      4  N   PRO C   2      67.470  51.909  18.626  0.00  0.00    +0.000 N 
ATOM      5  CA  PRO C   2      67.993  50.546  18.646  0.00  0.00    +0.000 C 
ATOM      6  C   PRO C   2      67.348  49.674  17.575  0.00  0.00    +0.000 C 
ATOM      7  O   PRO C   2      66.146  49.761  17.371  0.00  0.00    +0.000 OA
ATOM      8  CB  PRO C   2      67.591  50.046  20.039  0.00  0.00    +0.000 C 
ATOM      9  CG  PRO C   2      66.349  50.808  20.371  0.00  0.00    +0.000 C 
ATOM     10  CD  PRO C   2      66.397  52.107  19.614  0.00  0.00    +0.000 C 
ATOM     11  N   TYR C   3      68.136  48.838  16.919  0.00  0.00    +0.000 N 
ATOM     12  H   TYR C   3      69.108  48.777  17.187  0.00  0.00    +0.000 HD
ATOM     13  CA  TYR C   3      67.606  47.804  16.035  0.00  0.00    +0.000 C 
ATOM     14  C   TYR C   3      67.738  46.471  16.782  0.00  0.00    +0.000 C 
ATOM     15  O   TYR C   3      68.069  46.477  17.974  0.00  0.00    +0.000 OA
ATOM     16  CB  TYR C   3      68.357  47.801  14.708  0.00  0.00    +0.000 C 
ATOM     17  CG  TYR C   3      68.334  49.138  13.979  0.00  0.00    +0.000 A 
ATOM     18  CD1 TYR C   3      67.141  49.717  13.571  0.00  0.00    +0.000 A 
ATOM     19  CD2 TYR C   3      69.519  49.811  13.693  0.00  0.00    +0.000 A 
ATOM     20  CE1 TYR C   3      67.123  50.944  12.903  0.00  0.00    +0.000 A 
ATOM     21  CE2 TYR C   3      69.511  51.022  13.028  0.00  0.00    +0.000 A 
ATOM     22  CZ  TYR C   3      68.318  51.582  12.633  0.00  0.00    +0.000 A 
ATOM     23  OH  TYR C   3      68.356  52.782  11.958  0.00  0.00    +0.000 OA
ATOM     24  HH  TYR C   3      67.667  52.789  11.279  0.00  0.00    +0.000 HD
ATOM     25  N   THR C   4      67.470  45.341  16.128  0.00  0.00    +0.000 N 
ATOM     26  H   THR C   4      67.168  45.356  15.165  0.00  0.00    +0.000 HD
ATOM     27  CA  THR C   4      67.567  44.047  16.824  0.00  0.00    +0.000 C 
ATOM     28  C   THR C   4      68.998  43.702  17.234  0.00  0.00    +0.000 C 
ATOM     29  O   THR C   4      69.211  43.098  18.292  0.00  0.00    +0.000 OA
ATOM     30  CB  THR C   4      66.986  42.876  16.007  0.00  0.00    +0.000 C 
ATOM     31  OG1 THR C   4      67.584  42.849  14.707  0.00  0.00    +0.000 OA
ATOM     32  HG1 THR C   4      68.144  42.068  14.655  0.00  0.00    +0.000 HD
ATOM     33  CG2 THR C   4      65.469  43.004  15.880  0.00  0.00    +0.000 C 
ATOM     34  N   GLN C   5      69.976  44.073  16.407  0.00  0.00    +0.000 N 
ATOM     35  H   GLN C   5      69.735  44.515  15.536  0.00  0.00    +0.000 HD
ATOM     36  CA  GLN C   5      71.377  43.804  16.737  0.00  0.00    +0.000 C 
ATOM     37  C   GLN C   5      72.295  45.044  16.763  0.00  0.00    +0.000 C 
ATOM     38  O   GLN C   5      73.358  45.000  17.378  0.00  0.00    +0.000 OA
ATOM     39  CB  GLN C   5      71.929  42.719  15.809  0.00  0.00    +0.000 C 
ATOM     40  CG  GLN C   5      71.326  41.325  16.053  0.00  0.00    +0.000 C 
ATOM     41  CD  GLN C   5      71.906  40.590  17.256  0.00  0.00    +0.000 C 
ATOM     42  OE1 GLN C   5      73.020  40.869  17.709  0.00  0.00    +0.000 OA
ATOM     43  NE2 GLN C   5      71.153  39.625  17.768  0.00  0.00    +0.000 N 
ATOM     44 HE21 GLN C   5      71.514  39.180  18.593  0.00  0.00    +0.000 HD
ATOM     45 HE22 GLN C   5      70.229  39.452  17.424  0.00  0.00    +0.000 HD
ATOM     46  N   GLY C   6      71.897  46.140  16.118  0.00  0.00    +0.000 N 
ATOM     47  H   GLY C   6      70.972  46.172  15.731  0.00  0.00    +0.000 HD
ATOM     48  CA  GLY C   6      72.692  47.392  16.151  0.00  0.00    +0.000 C 
ATOM     49  C   GLY C   6      71.936  48.554  16.778  0.00  0.00    +0.000 C 
ATOM     50  O   GLY C   6      70.789  48.399  17.199  0.00  0.00    +0.000 OA
ATOM     51  N   LYS C   7      72.583  49.718  16.856  0.00  0.00    +0.000 N 
ATOM     52  H   LYS C   7      73.568  49.749  16.596  0.00  0.00    +0.000 HD
ATOM     53  CA  LYS C   7      71.926  50.916  17.350  0.00  0.00    +0.000 C 
ATOM     54  C   LYS C   7      72.705  52.168  16.979  0.00  0.00    +0.000 C 
ATOM     55  O   LYS C   7      73.911  52.107  16.741  0.00  0.00    +0.000 OA
ATOM     56  CB  LYS C   7      71.762  50.861  18.862  0.00  0.00    +0.000 C 
ATOM     57  CG  LYS C   7      73.070  50.917  19.639  0.00  0.00    +0.000 C 
ATOM     58  CD  LYS C   7      72.953  50.188  20.970  0.00  0.00    +0.000 C 
ATOM     59  CE  LYS C   7      74.214  50.316  21.823  0.00  0.00    +0.000 C 
ATOM     60  NZ  LYS C   7      74.495  51.730  22.193  0.00  0.00    +0.000 N 
ATOM     61  HZ1 LYS C   7      74.659  52.275  21.357  0.00  0.00    +0.000 HD
ATOM     62  HZ2 LYS C   7      75.332  51.778  22.760  0.00  0.00    +0.000 HD
ATOM     63  HZ3 LYS C   7      73.727  52.137  22.709  0.00  0.00    +0.000 HD
ATOM     64  N   TRP C   8      72.001  53.288  16.915  0.00  0.00    +0.000 N 
ATOM     65  H   TRP C   8      70.992  53.262  17.046  0.00  0.00    +0.000 HD
ATOM     66  CA  TRP C   8      72.660  54.589  16.884  0.00  0.00    +0.000 C 
ATOM     67  C   TRP C   8      71.904  55.610  17.675  0.00  0.00    +0.000 C 
ATOM     68  O   TRP C   8      70.719  55.448  17.974  0.00  0.00    +0.000 OA
ATOM     69  CB  TRP C   8      72.918  55.057  15.459  0.00  0.00    +0.000 C 
ATOM     70  CG  TRP C   8      71.687  55.195  14.605  0.00  0.00    +0.000 A 
ATOM     71  CD1 TRP C   8      71.175  54.269  13.703  0.00  0.00    +0.000 A 
ATOM     72  CD2 TRP C   8      70.797  56.359  14.506  0.00  0.00    +0.000 A 
ATOM     73  NE1 TRP C   8      70.047  54.762  13.085  0.00  0.00    +0.000 N 
ATOM     74  HE1 TRP C   8      69.459  54.203  12.476  0.00  0.00    +0.000 HD
ATOM     75  CE2 TRP C   8      69.773  56.013  13.524  0.00  0.00    +0.000 A 
ATOM     76  CE3 TRP C   8      70.743  57.604  15.125  0.00  0.00    +0.000 A 
ATOM     77  CZ2 TRP C   8      68.742  56.879  13.207  0.00  0.00    +0.000 A 
ATOM     78  CZ3 TRP C   8      69.711  58.479  14.786  0.00  0.00    +0.000 A 
ATOM     79  CH2 TRP C   8      68.733  58.125  13.844  0.00  0.00    +0.000 A 
ATOM     80  N   GLU C   9      72.612  56.675  18.043  0.00  0.00    +0.000 N 
ATOM     81  H   GLU C   9      73.555  56.806  17.706  0.00  0.00    +0.000 HD
ATOM     82  CA  GLU C   9      72.031  57.781  18.760  0.00  0.00    +0.000 C 
ATOM     83  C   GLU C   9      72.464  59.038  18.039  0.00  0.00    +0.000 C 
ATOM     84  O   GLU C   9      73.575  59.104  17.520  0.00  0.00    +0.000 OA
ATOM     85  CB  GLU C   9      72.519  57.808  20.217  0.00  0.00    +0.000 C 
ATOM     86  CG  GLU C   9      71.902  58.953  21.007  0.00  0.00    +0.000 C 
ATOM     87  CD  GLU C   9      72.281  58.969  22.480  0.00  0.00    +0.000 C 
ATOM     88  OE1 GLU C   9      73.455  58.686  22.816  0.00  0.00    +0.000 OA
ATOM     89  OE2 GLU C   9      71.391  59.316  23.286  0.00  0.00    +0.000 OA
ATOM     90  N   NME C  10      71.574  60.015  17.979  0.00  0.00    +0.000 N 
ATOM     91  H   NME C  10      70.696  59.910  18.464  0.00  0.00    +0.000 HD
ATOM     92  C   NME C  10      71.840  61.230  17.251  0.00  0.00    +0.000 C 
TER 
REMARK  Name = /home/xianyang/aimnet2_score_pipelines/work/L1234-fixed-receptor-eint-20260921/L2/P56817/prepared.pdb
REMARK                            x       y       z     vdW  Elec       q    Type
REMARK                         _______ _______ _______ _____ _____    ______ ____
ATOM      1  CH3 ACE D   1      76.665  53.854  17.326  0.00  0.00    +0.000 C 
ATOM      2  C   ACE D   1      77.342  52.552  17.729  0.00  0.00    +0.000 C 
ATOM      3  O   ACE D   1      78.469  52.536  18.215  0.00  0.00    +0.000 OA
ATOM      4  N   ASP D   2      76.626  51.458  17.519  0.00  0.00    +0.000 N 
ATOM      5  H   ASP D   2      75.693  51.538  17.124  0.00  0.00    +0.000 HD
ATOM      6  CA  ASP D   2      77.147  50.138  17.796  0.00  0.00    +0.000 C 
ATOM      7  C   ASP D   2      76.594  49.195  16.742  0.00  0.00    +0.000 C 
ATOM      8  O   ASP D   2      75.375  49.106  16.582  0.00  0.00    +0.000 OA
ATOM      9  CB  ASP D   2      76.733  49.700  19.182  0.00  0.00    +0.000 C 
ATOM     10  CG  ASP D   2      77.240  48.327  19.526  0.00  0.00    +0.000 C 
ATOM     11  OD1 ASP D   2      78.470  48.133  19.581  0.00  0.00    +0.000 OA
ATOM     12  OD2 ASP D   2      76.406  47.435  19.743  0.00  0.00    +0.000 OA
ATOM     13  N   LYS D   3      77.502  48.537  16.021  0.00  0.00    +0.000 N 
ATOM     14  H   LYS D   3      78.465  48.626  16.316  0.00  0.00    +0.000 HD
ATOM     15  CA  LYS D   3      77.183  47.553  14.984  0.00  0.00    +0.000 C 
ATOM     16  C   LYS D   3      76.211  48.086  13.937  0.00  0.00    +0.000 C 
ATOM     17  O   LYS D   3      75.322  47.369  13.452  0.00  0.00    +0.000 OA
ATOM     18  CB  LYS D   3      76.716  46.224  15.612  0.00  0.00    +0.000 C 
ATOM     19  CG  LYS D   3      77.843  45.494  16.349  0.00  0.00    +0.000 C 
ATOM     20  CD  LYS D   3      77.389  44.223  17.067  0.00  0.00    +0.000 C 
ATOM     21  CE  LYS D   3      78.586  43.526  17.720  0.00  0.00    +0.000 C 
ATOM     22  NZ  LYS D   3      78.328  42.147  18.226  0.00  0.00    +0.000 N 
ATOM     23  HZ1 LYS D   3      77.593  42.187  18.924  0.00  0.00    +0.000 HD
ATOM     24  HZ2 LYS D   3      78.015  41.546  17.475  0.00  0.00    +0.000 HD
ATOM     25  HZ3 LYS D   3      79.160  41.759  18.649  0.00  0.00    +0.000 HD
ATOM     26  N   PHE D   4      76.440  49.338  13.545  0.00  0.00    +0.000 N 
ATOM     27  H   PHE D   4      77.184  49.839  13.998  0.00  0.00    +0.000 HD
ATOM     28  CA  PHE D   4      75.612  50.007  12.575  0.00  0.00    +0.000 C 
ATOM     29  C   PHE D   4      76.415  50.210  11.294  0.00  0.00    +0.000 C 
ATOM     30  O   PHE D   4      76.109  49.608  10.264  0.00  0.00    +0.000 OA
ATOM     31  CB  PHE D   4      75.114  51.333  13.154  0.00  0.00    +0.000 C 
ATOM     32  CG  PHE D   4      74.331  52.158  12.181  0.00  0.00    +0.000 A 
ATOM     33  CD1 PHE D   4      73.161  51.672  11.639  0.00  0.00    +0.000 A 
ATOM     34  CD2 PHE D   4      74.765  53.430  11.805  0.00  0.00    +0.000 A 
ATOM     35  CE1 PHE D   4      72.425  52.421  10.749  0.00  0.00    +0.000 A 
ATOM     36  CE2 PHE D   4      74.025  54.190  10.907  0.00  0.00    +0.000 A 
ATOM     37  CZ  PHE D   4      72.866  53.670  10.368  0.00  0.00    +0.000 A 
ATOM     38  N   PHE D   5      77.465  51.022  11.365  0.00  0.00    +0.000 N 
ATOM     39  H   PHE D   5      77.674  51.492  12.228  0.00  0.00    +0.000 HD
ATOM     40  CA  PHE D   5      78.349  51.227  10.216  0.00  0.00    +0.000 C 
ATOM     41  C   PHE D   5      79.099  49.934   9.892  0.00  0.00    +0.000 C 
ATOM     42  O   PHE D   5      79.405  49.137  10.785  0.00  0.00    +0.000 OA
ATOM     43  CB  PHE D   5      79.318  52.389  10.475  0.00  0.00    +0.000 C 
ATOM     44  CG  PHE D   5      78.631  53.715  10.677  0.00  0.00    +0.000 A 
ATOM     45  CD1 PHE D   5      77.807  54.237   9.688  0.00  0.00    +0.000 A 
ATOM     46  CD2 PHE D   5      78.815  54.445  11.838  0.00  0.00    +0.000 A 
ATOM     47  CE1 PHE D   5      77.159  55.442   9.861  0.00  0.00    +0.000 A 
ATOM     48  CE2 PHE D   5      78.174  55.658  12.021  0.00  0.00    +0.000 A 
ATOM     49  CZ  PHE D   5      77.346  56.162  11.031  0.00  0.00    +0.000 A 
ATOM     50  N   ILE D   6      79.371  49.720   8.610  0.00  0.00    +0.000 N 
ATOM     51  H   ILE D   6      79.091  50.409   7.926  0.00  0.00    +0.000 HD
ATOM     52  CA  ILE D   6      80.015  48.506   8.144  0.00  0.00    +0.000 C 
ATOM     53  C   ILE D   6      81.492  48.801   7.909  0.00  0.00    +0.000 C 
ATOM     54  O   ILE D   6      81.833  49.686   7.127  0.00  0.00    +0.000 OA
ATOM     55  CB  ILE D   6      79.370  47.985   6.848  0.00  0.00    +0.000 C 
ATOM     56  CG1 ILE D   6      77.924  47.543   7.094  0.00  0.00    +0.000 C 
ATOM     57  CG2 ILE D   6      80.175  46.834   6.260  0.00  0.00    +0.000 C 
ATOM     58  CD1 ILE D   6      77.134  47.390   5.806  0.00  0.00    +0.000 C 
ATOM     59  N   ASN D   7      82.368  48.063   8.587  0.00  0.00    +0.000 N 
ATOM     60  H   ASN D   7      82.041  47.352   9.221  0.00  0.00    +0.000 HD
ATOM     61  CA  ASN D   7      83.814  48.245   8.375  0.00  0.00    +0.000 C 
ATOM     62  C   ASN D   7      84.196  47.884   6.950  0.00  0.00    +0.000 C 
ATOM     63  O   ASN D   7      84.096  46.733   6.549  0.00  0.00    +0.000 OA
ATOM     64  CB  ASN D   7      84.632  47.403   9.362  0.00  0.00    +0.000 C 
ATOM     65  CG  ASN D   7      86.101  47.817   9.412  0.00  0.00    +0.000 C 
ATOM     66  OD1 ASN D   7      86.452  48.936   9.044  0.00  0.00    +0.000 OA
ATOM     67  ND2 ASN D   7      86.956  46.912   9.887  0.00  0.00    +0.000 N 
ATOM     68 HD21 ASN D   7      87.921  47.187   9.930  0.00  0.00    +0.000 HD
ATOM     69 HD22 ASN D   7      86.640  46.013  10.198  0.00  0.00    +0.000 HD
ATOM     70  N   GLY D   8      84.615  48.881   6.183  0.00  0.00    +0.000 N 
ATOM     71  H   GLY D   8      84.674  49.808   6.581  0.00  0.00    +0.000 HD
ATOM     72  CA  GLY D   8      85.040  48.691   4.796  0.00  0.00    +0.000 C 
ATOM     73  C   GLY D   8      84.022  49.186   3.766  0.00  0.00    +0.000 C 
ATOM     74  O   GLY D   8      84.331  49.244   2.578  0.00  0.00    +0.000 OA
ATOM     75  N   SER D   9      82.819  49.552   4.221  0.00  0.00    +0.000 N 
ATOM     76  H   SER D   9      82.648  49.538   5.218  0.00  0.00    +0.000 HD
ATOM     77  CA  SER D   9      81.799  50.108   3.342  0.00  0.00    +0.000 C 
ATOM     78  C   SER D   9      82.135  51.524   2.941  0.00  0.00    +0.000 C 
ATOM     79  O   SER D   9      82.957  52.186   3.584  0.00  0.00    +0.000 OA
ATOM     80  CB  SER D   9      80.429  50.133   4.029  0.00  0.00    +0.000 C 
ATOM     81  OG  SER D   9      80.335  51.245   4.910  0.00  0.00    +0.000 OA
ATOM     82  HG  SER D   9      81.026  51.187   5.581  0.00  0.00    +0.000 HD
ATOM     83  N   ASN D  10      81.450  52.002   1.908  0.00  0.00    +0.000 N 
ATOM     84  H   ASN D  10      80.785  51.406   1.447  0.00  0.00    +0.000 HD
ATOM     85  CA  ASN D  10      81.647  53.352   1.405  0.00  0.00    +0.000 C 
ATOM     86  C   ASN D  10      80.441  54.258   1.622  0.00  0.00    +0.000 C 
ATOM     87  O   ASN D  10      80.287  55.206   0.890  0.00  0.00    +0.000 OA
ATOM     88  CB  ASN D  10      82.014  53.312  -0.092  0.00  0.00    +0.000 C 
ATOM     89  CG  ASN D  10      82.667  54.607  -0.583  0.00  0.00    +0.000 C 
ATOM     90  OD1 ASN D  10      83.472  55.233   0.119  0.00  0.00    +0.000 OA
ATOM     91  ND2 ASN D  10      82.328  55.009  -1.812  0.00  0.00    +0.000 N 
ATOM     92 HD21 ASN D  10      81.342  55.221  -1.839  0.00  0.00    +0.000 HD
ATOM     93 HD22 ASN D  10      82.919  55.777  -2.090  0.00  0.00    +0.000 HD
ATOM     94  N   TRP D  11      79.605  53.982   2.628  0.00  0.00    +0.000 N 
ATOM     95  H   TRP D  11      79.855  53.274   3.306  0.00  0.00    +0.000 HD
ATOM     96  CA  TRP D  11      78.520  54.887   2.977  0.00  0.00    +0.000 C 
ATOM     97  C   TRP D  11      78.617  55.351   4.417  0.00  0.00    +0.000 C 
ATOM     98  O   TRP D  11      79.164  54.654   5.277  0.00  0.00    +0.000 OA
ATOM     99  CB  TRP D  11      77.149  54.297   2.666  0.00  0.00    +0.000 C 
ATOM    100  CG  TRP D  11      76.824  52.976   3.325  0.00  0.00    +0.000 A 
ATOM    101  CD1 TRP D  11      76.948  51.711   2.771  0.00  0.00    +0.000 A 
ATOM    102  CD2 TRP D  11      76.273  52.747   4.654  0.00  0.00    +0.000 A 
ATOM    103  NE1 TRP D  11      76.533  50.749   3.640  0.00  0.00    +0.000 N 
ATOM    104  HE1 TRP D  11      76.430  49.772   3.372  0.00  0.00    +0.000 HD
ATOM    105  CE2 TRP D  11      76.110  51.299   4.785  0.00  0.00    +0.000 A 
ATOM    106  CE3 TRP D  11      75.899  53.560   5.710  0.00  0.00    +0.000 A 
ATOM    107  CZ2 TRP D  11      75.618  50.719   5.940  0.00  0.00    +0.000 A 
ATOM    108  CZ3 TRP D  11      75.414  52.964   6.866  0.00  0.00    +0.000 A 
ATOM    109  CH2 TRP D  11      75.270  51.583   6.978  0.00  0.00    +0.000 A 
ATOM    110  N   GLU D  12      78.070  56.536   4.665  0.00  0.00    +0.000 N 
ATOM    111  H   GLU D  12      77.737  57.072   3.867  0.00  0.00    +0.000 HD
ATOM    112  CA  GLU D  12      78.213  57.241   5.945  0.00  0.00    +0.000 C 
ATOM    113  C   GLU D  12      76.882  57.609   6.574  0.00  0.00    +0.000 C 
ATOM    114  O   GLU D  12      76.849  58.289   7.608  0.00  0.00    +0.000 OA
ATOM    115  CB  GLU D  12      78.953  58.565   5.719  0.00  0.00    +0.000 C 
ATOM    116  CG  GLU D  12      80.329  58.466   5.180  0.00  0.00    +0.000 C 
ATOM    117  CD  GLU D  12      80.415  58.367   3.688  0.00  0.00    +0.000 C 
ATOM    118  OE1 GLU D  12      79.919  59.247   2.928  0.00  0.00    +0.000 OA
ATOM    119  OE2 GLU D  12      81.066  57.416   3.299  0.00  0.00    +0.000 OA
ATOM    120  N   GLY D  13      75.778  57.230   5.943  0.00  0.00    +0.000 N 
ATOM    121  H   GLY D  13      75.858  56.730   5.067  0.00  0.00    +0.000 HD
ATOM    122  CA  GLY D  13      74.469  57.565   6.459  0.00  0.00    +0.000 C 
ATOM    123  C   GLY D  13      73.389  56.737   5.776  0.00  0.00    +0.000 C 
ATOM    124  O   GLY D  13      73.686  55.954   4.855  0.00  0.00    +0.000 OA
ATOM    125  N   ILE D  14      72.157  56.899   6.248  0.00  0.00    +0.000 N 
ATOM    126  H   ILE D  14      71.984  57.585   6.968  0.00  0.00    +0.000 HD
ATOM    127  CA  ILE D  14      71.001  56.170   5.711  0.00  0.00    +0.000 C 
ATOM    128  C   ILE D  14      69.877  57.119   5.317  0.00  0.00    +0.000 C 
ATOM    129  O   ILE D  14      69.603  58.102   6.012  0.00  0.00    +0.000 OA
ATOM    130  CB  ILE D  14      70.468  55.073   6.688  0.00  0.00    +0.000 C 
ATOM    131  CG1 ILE D  14      70.073  55.638   8.067  0.00  0.00    +0.000 C 
ATOM    132  CG2 ILE D  14      71.515  53.975   6.905  0.00  0.00    +0.000 C 
ATOM    133  CD1 ILE D  14      69.392  54.609   8.967  0.00  0.00    +0.000 C 
ATOM    134  N   LEU D  15      69.214  56.818   4.199  0.00  0.00    +0.000 N 
ATOM    135  H   LEU D  15      69.463  55.991   3.668  0.00  0.00    +0.000 HD
ATOM    136  CA  LEU D  15      68.078  57.607   3.749  0.00  0.00    +0.000 C 
ATOM    137  C   LEU D  15      66.836  56.765   3.877  0.00  0.00    +0.000 C 
ATOM    138  O   LEU D  15      66.590  55.880   3.051  0.00  0.00    +0.000 OA
ATOM    139  CB  LEU D  15      68.253  58.072   2.299  0.00  0.00    +0.000 C 
ATOM    140  CG  LEU D  15      67.135  58.913   1.700  0.00  0.00    +0.000 C 
ATOM    141  CD1 LEU D  15      66.999  60.246   2.427  0.00  0.00    +0.000 C 
ATOM    142  CD2 LEU D  15      67.387  59.103   0.201  0.00  0.00    +0.000 C 
ATOM    143  N   NME D  16      66.084  57.001   4.943  0.00  0.00    +0.000 N 
ATOM    144  H   NME D  16      66.387  57.704   5.597  0.00  0.00    +0.000 HD
ATOM    145  C   NME D  16      64.847  56.293   5.195  0.00  0.00    +0.000 C 
TER 
REMARK  Name = /home/xianyang/aimnet2_score_pipelines/work/L1234-fixed-receptor-eint-20260921/L2/P56817/prepared.pdb
REMARK                            x       y       z     vdW  Elec       q    Type
REMARK                         _______ _______ _______ _____ _____    ______ ____
ATOM      1  CH3 ACE E   1      81.930  42.629  -6.311  0.00  0.00    +0.000 C 
ATOM      2  C   ACE E   1      81.136  43.925  -6.110  0.00  0.00    +0.000 C 
ATOM      3  O   ACE E   1      80.397  44.067  -5.136  0.00  0.00    +0.000 OA
ATOM      4  N   SER E   2      81.305  44.859  -7.039  0.00  0.00    +0.000 N 
ATOM      5  H   SER E   2      81.841  44.627  -7.860  0.00  0.00    +0.000 HD
ATOM      6  CA  SER E   2      80.567  46.113  -7.032  0.00  0.00    +0.000 C 
ATOM      7  C   SER E   2      79.146  45.926  -7.566  0.00  0.00    +0.000 C 
ATOM      8  O   SER E   2      78.949  45.292  -8.595  0.00  0.00    +0.000 OA
ATOM      9  CB  SER E   2      81.296  47.157  -7.876  0.00  0.00    +0.000 C 
ATOM     10  OG  SER E   2      82.488  47.579  -7.231  0.00  0.00    +0.000 OA
ATOM     11  HG  SER E   2      82.946  48.103  -7.943  0.00  0.00    +0.000 HD
ATOM     12  N   VAL E   3      78.162  46.473  -6.856  0.00  0.00    +0.000 N 
ATOM     13  H   VAL E   3      78.396  47.057  -6.061  0.00  0.00    +0.000 HD
ATOM     14  CA  VAL E   3      76.784  46.487  -7.345  0.00  0.00    +0.000 C 
ATOM     15  C   VAL E   3      76.450  47.890  -7.803  0.00  0.00    +0.000 C 
ATOM     16  O   VAL E   3      77.182  48.837  -7.524  0.00  0.00    +0.000 OA
ATOM     17  CB  VAL E   3      75.767  46.028  -6.281  0.00  0.00    +0.000 C 
ATOM     18  CG1 VAL E   3      76.039  44.584  -5.880  0.00  0.00    +0.000 C 
ATOM     19  CG2 VAL E   3      75.777  46.965  -5.070  0.00  0.00    +0.000 C 
ATOM     20  N   GLY E   4      75.345  48.028  -8.521  0.00  0.00    +0.000 N 
ATOM     21  H   GLY E   4      74.727  47.240  -8.665  0.00  0.00    +0.000 HD
ATOM     22  CA  GLY E   4      74.932  49.330  -9.021  0.00  0.00    +0.000 C 
ATOM     23  C   GLY E   4      73.426  49.386  -9.207  0.00  0.00    +0.000 C 
ATOM     24  O   GLY E   4      72.716  48.466  -8.837  0.00  0.00    +0.000 OA
ATOM     25  N   NME E   5      72.951  50.459  -9.806  0.00  0.00    +0.000 N 
ATOM     26  H   NME E   5      73.575  51.218 -10.029  0.00  0.00    +0.000 HD
ATOM     27  C   NME E   5      71.527  50.611 -10.041  0.00  0.00    +0.000 C 
TER 
REMARK  Name = /home/xianyang/aimnet2_score_pipelines/work/L1234-fixed-receptor-eint-20260921/L2/P56817/prepared.pdb
REMARK                            x       y       z     vdW  Elec       q    Type
REMARK                         _______ _______ _______ _____ _____    ______ ____
ATOM      1  CH3 ACE F   1      51.555  53.950   4.754  0.00  0.00    +0.000 C 
ATOM      2  C   ACE F   1      52.332  54.043   6.054  0.00  0.00    +0.000 C 
ATOM      3  O   ACE F   1      52.113  54.945   6.849  0.00  0.00    +0.000 OA
ATOM      4  N   TRP F   2      53.199  53.066   6.278  0.00  0.00    +0.000 N 
ATOM      5  H   TRP F   2      53.383  52.399   5.539  0.00  0.00    +0.000 HD
ATOM      6  CA  TRP F   2      54.120  53.094   7.414  0.00  0.00    +0.000 C 
ATOM      7  C   TRP F   2      55.421  52.549   6.877  0.00  0.00    +0.000 C 
ATOM      8  O   TRP F   2      56.209  53.326   6.353  0.00  0.00    +0.000 OA
ATOM      9  CB  TRP F   2      53.524  52.413   8.667  0.00  0.00    +0.000 C 
ATOM     10  CG  TRP F   2      53.121  50.966   8.595  0.00  0.00    +0.000 A 
ATOM     11  CD1 TRP F   2      52.498  50.288   7.541  0.00  0.00    +0.000 A 
ATOM     12  CD2 TRP F   2      53.242  49.965   9.668  0.00  0.00    +0.000 A 
ATOM     13  NE1 TRP F   2      52.271  48.977   7.868  0.00  0.00    +0.000 N 
ATOM     14  HE1 TRP F   2      51.796  48.318   7.269  0.00  0.00    +0.000 HD
ATOM     15  CE2 TRP F   2      52.692  48.720   9.136  0.00  0.00    +0.000 A 
ATOM     16  CE3 TRP F   2      53.746  49.980  10.968  0.00  0.00    +0.000 A 
ATOM     17  CZ2 TRP F   2      52.656  47.548   9.888  0.00  0.00    +0.000 A 
ATOM     18  CZ3 TRP F   2      53.719  48.791  11.710  0.00  0.00    +0.000 A 
ATOM     19  CH2 TRP F   2      53.185  47.608  11.182  0.00  0.00    +0.000 A 
ATOM     20  N   TYR F   3      55.630  51.240   6.924  0.00  0.00    +0.000 N 
ATOM     21  H   TYR F   3      54.944  50.684   7.410  0.00  0.00    +0.000 HD
ATOM     22  CA  TYR F   3      56.495  50.560   5.967  0.00  0.00    +0.000 C 
ATOM     23  C   TYR F   3      55.773  50.582   4.608  0.00  0.00    +0.000 C 
ATOM     24  O   TYR F   3      54.612  50.968   4.544  0.00  0.00    +0.000 OA
ATOM     25  CB  TYR F   3      56.713  49.108   6.360  0.00  0.00    +0.000 C 
ATOM     26  CG  TYR F   3      57.357  48.944   7.709  0.00  0.00    +0.000 A 
ATOM     27  CD1 TYR F   3      58.738  48.934   7.839  0.00  0.00    +0.000 A 
ATOM     28  CD2 TYR F   3      56.580  48.819   8.863  0.00  0.00    +0.000 A 
ATOM     29  CE1 TYR F   3      59.334  48.807   9.076  0.00  0.00    +0.000 A 
ATOM     30  CE2 TYR F   3      57.172  48.673  10.112  0.00  0.00    +0.000 A 
ATOM     31  CZ  TYR F   3      58.544  48.683  10.204  0.00  0.00    +0.000 A 
ATOM     32  OH  TYR F   3      59.136  48.546  11.428  0.00  0.00    +0.000 OA
ATOM     33  HH  TYR F   3      60.078  48.414  11.333  0.00  0.00    +0.000 HD
ATOM     34  N   TYR F   4      56.455  50.141   3.559  0.00  0.00    +0.000 N 
ATOM     35  H   TYR F   4      57.431  49.901   3.663  0.00  0.00    +0.000 HD
ATOM     36  CA  TYR F   4      55.807  49.880   2.267  0.00  0.00    +0.000 C 
ATOM     37  C   TYR F   4      55.208  48.488   2.367  0.00  0.00    +0.000 C 
ATOM     38  O   TYR F   4      55.831  47.499   1.992  0.00  0.00    +0.000 OA
ATOM     39  CB  TYR F   4      56.806  50.021   1.108  0.00  0.00    +0.000 C 
ATOM     40  CG  TYR F   4      57.184  51.461   0.864  0.00  0.00    +0.000 A 
ATOM     41  CD1 TYR F   4      56.304  52.330   0.211  0.00  0.00    +0.000 A 
ATOM     42  CD2 TYR F   4      58.395  51.983   1.327  0.00  0.00    +0.000 A 
ATOM     43  CE1 TYR F   4      56.626  53.654   0.010  0.00  0.00    +0.000 A 
ATOM     44  CE2 TYR F   4      58.724  53.319   1.129  0.00  0.00    +0.000 A 
ATOM     45  CZ  TYR F   4      57.838  54.152   0.454  0.00  0.00    +0.000 A 
ATOM     46  OH  TYR F   4      58.133  55.486   0.258  0.00  0.00    +0.000 OA
ATOM     47  HH  TYR F   4      58.894  55.755   0.770  0.00  0.00    +0.000 HD
ATOM     48  N   NME F   5      54.015  48.440   2.954  0.00  0.00    +0.000 N 
ATOM     49  H   NME F   5      53.622  49.310   3.289  0.00  0.00    +0.000 HD
ATOM     50  C   NME F   5      53.378  47.205   3.307  0.00  0.00    +0.000 C 
TER 
REMARK  Name = /home/xianyang/aimnet2_score_pipelines/work/L1234-fixed-receptor-eint-20260921/L2/P56817/prepared.pdb
REMARK                            x       y       z     vdW  Elec       q    Type
REMARK                         _______ _______ _______ _____ _____    ______ ____
ATOM      1  CH3 ACE G   1      57.147  44.863   3.330  0.00  0.00    +0.000 C 
ATOM      2  C   ACE G   1      58.150  44.718   2.195  0.00  0.00    +0.000 C 
ATOM      3  O   ACE G   1      58.723  43.655   2.007  0.00  0.00    +0.000 OA
ATOM      4  N   VAL G   2      58.362  45.803   1.448  0.00  0.00    +0.000 N 
ATOM      5  H   VAL G   2      57.810  46.628   1.645  0.00  0.00    +0.000 HD
ATOM      6  CA  VAL G   2      59.366  45.879   0.399  0.00  0.00    +0.000 C 
ATOM      7  C   VAL G   2      60.498  46.734   0.985  0.00  0.00    +0.000 C 
ATOM      8  O   VAL G   2      60.269  47.867   1.378  0.00  0.00    +0.000 OA
ATOM      9  CB  VAL G   2      58.816  46.555  -0.868  0.00  0.00    +0.000 C 
ATOM     10  CG1 VAL G   2      59.880  46.565  -1.979  0.00  0.00    +0.000 C 
ATOM     11  CG2 VAL G   2      57.534  45.869  -1.318  0.00  0.00    +0.000 C 
ATOM     12  N   ASP G   3      61.700  46.180   1.070  0.00  0.00    +0.000 N 
ATOM     13  H   ASP G   3      61.860  45.251   0.688  0.00  0.00    +0.000 HD
ATOM     14  CA  ASP G   3      62.781  46.798   1.871  0.00  0.00    +0.000 C 
ATOM     15  C   ASP G   3      64.136  46.707   1.171  0.00  0.00    +0.000 C 
ATOM     16  O   ASP G   3      64.790  45.662   1.175  0.00  0.00    +0.000 OA
ATOM     17  CB  ASP G   3      62.852  46.134   3.258  0.00  0.00    +0.000 C 
ATOM     18  CG  ASP G   3      63.901  46.771   4.172  0.00  0.00    +0.000 C 
ATOM     19  OD1 ASP G   3      64.484  47.819   3.811  0.00  0.00    +0.000 OA
ATOM     20  OD2 ASP G   3      64.145  46.207   5.271  0.00  0.00    +0.000 OA
ATOM     21  N   SER G   4      64.557  47.819   0.584  0.00  0.00    +0.000 N 
ATOM     22  H   SER G   4      63.971  48.645   0.626  0.00  0.00    +0.000 HD
ATOM     23  CA  SER G   4      65.841  47.906  -0.101  0.00  0.00    +0.000 C 
ATOM     24  C   SER G   4      67.034  47.859   0.865  0.00  0.00    +0.000 C 
ATOM     25  O   SER G   4      68.170  47.730   0.413  0.00  0.00    +0.000 OA
ATOM     26  CB  SER G   4      65.907  49.194  -0.901  0.00  0.00    +0.000 C 
ATOM     27  OG  SER G   4      65.892  50.333  -0.053  0.00  0.00    +0.000 OA
ATOM     28  HG  SER G   4      66.804  50.526   0.242  0.00  0.00    +0.000 HD
ATOM     29  N   GLY G   5      66.773  47.977   2.166  0.00  0.00    +0.000 N 
ATOM     30  H   GLY G   5      65.814  48.087   2.502  0.00  0.00    +0.000 HD
ATOM     31  CA  GLY G   5      67.822  47.925   3.207  0.00  0.00    +0.000 C 
ATOM     32  C   GLY G   5      67.979  46.578   3.904  0.00  0.00    +0.000 C 
ATOM     33  O   GLY G   5      68.609  46.496   4.965  0.00  0.00    +0.000 OA
ATOM     34  N   THR G   6      67.373  45.536   3.331  0.00  0.00    +0.000 N 
ATOM     35  H   THR G   6      66.781  45.708   2.527  0.00  0.00    +0.000 HD
ATOM     36  CA  THR G   6      67.549  44.156   3.788  0.00  0.00    +0.000 C 
ATOM     37  C   THR G   6      68.024  43.344   2.601  0.00  0.00    +0.000 C 
ATOM     38  O   THR G   6      67.536  43.496   1.476  0.00  0.00    +0.000 OA
ATOM     39  CB  THR G   6      66.241  43.575   4.352  0.00  0.00    +0.000 C 
ATOM     40  OG1 THR G   6      65.886  44.289   5.521  0.00  0.00    +0.000 OA
ATOM     41  HG1 THR G   6      65.232  45.007   5.339  0.00  0.00    +0.000 HD
ATOM     42  CG2 THR G   6      66.353  42.064   4.675  0.00  0.00    +0.000 C 
ATOM     43  N   THR G   7      69.026  42.506   2.835  0.00  0.00    +0.000 N 
ATOM     44  H   THR G   7      69.473  42.525   3.739  0.00  0.00    +0.000 HD
ATOM     45  CA  THR G   7      69.574  41.681   1.782  0.00  0.00    +0.000 C 
ATOM     46  C   THR G   7      68.603  40.532   1.465  0.00  0.00    +0.000 C 
ATOM     47  O   THR G   7      68.284  40.303   0.313  0.00  0.00    +0.000 OA
ATOM     48  CB  THR G   7      70.946  41.087   2.202  0.00  0.00    +0.000 C 
ATOM     49  OG1 THR G   7      71.909  42.145   2.335  0.00  0.00    +0.000 OA
ATOM     50  HG1 THR G   7      72.572  41.876   2.976  0.00  0.00    +0.000 HD
ATOM     51  CG2 THR G   7      71.447  40.095   1.169  0.00  0.00    +0.000 C 
ATOM     52  N   ASN G   8      68.139  39.839   2.501  0.00  0.00    +0.000 N 
ATOM     53  H   ASN G   8      68.385  40.130   3.432  0.00  0.00    +0.000 HD
ATOM     54  CA  ASN G   8      67.402  38.583   2.325  0.00  0.00    +0.000 C 
ATOM     55  C   ASN G   8      65.935  38.750   1.920  0.00  0.00    +0.000 C 
ATOM     56  O   ASN G   8      65.325  39.815   2.069  0.00  0.00    +0.000 OA
ATOM     57  CB  ASN G   8      67.410  37.761   3.622  0.00  0.00    +0.000 C 
ATOM     58  CG  ASN G   8      68.772  37.150   3.946  0.00  0.00    +0.000 C 
ATOM     59  OD1 ASN G   8      69.727  37.260   3.184  0.00  0.00    +0.000 OA
ATOM     60  ND2 ASN G   8      68.849  36.482   5.099  0.00  0.00    +0.000 N 
ATOM     61 HD21 ASN G   8      69.737  36.061   5.312  0.00  0.00    +0.000 HD
ATOM     62 HD22 ASN G   8      68.043  36.359   5.684  0.00  0.00    +0.000 HD
ATOM     63  N   NME G   9      65.383  37.650   1.420  0.00  0.00    +0.000 N 
ATOM     64  H   NME G   9      65.980  36.854   1.256  0.00  0.00    +0.000 HD
ATOM     65  C   NME G   9      63.960  37.403   1.501  0.00  0.00    +0.000 C 
TER 
REMARK  Name = /home/xianyang/aimnet2_score_pipelines/work/L1234-fixed-receptor-eint-20260921/L2/P56817/prepared.pdb
REMARK                            x       y       z     vdW  Elec       q    Type
REMARK                         _______ _______ _______ _____ _____    ______ ____
ATOM      1  CH3 ACE H   1      68.375  33.800  -3.276  0.00  0.00    +0.000 C 
ATOM      2  C   ACE H   1      69.566  32.953  -2.810  0.00  0.00    +0.000 C 
ATOM      3  O   ACE H   1      69.727  32.689  -1.604  0.00  0.00    +0.000 OA
ATOM      4  N   LEU H   2      70.386  32.529  -3.763  0.00  0.00    +0.000 N 
ATOM      5  H   LEU H   2      70.181  32.755  -4.724  0.00  0.00    +0.000 HD
ATOM      6  CA  LEU H   2      71.666  31.870  -3.469  0.00  0.00    +0.000 C 
ATOM      7  C   LEU H   2      72.768  32.845  -3.830  0.00  0.00    +0.000 C 
ATOM      8  O   LEU H   2      73.078  33.011  -5.013  0.00  0.00    +0.000 OA
ATOM      9  CB  LEU H   2      71.851  30.617  -4.325  0.00  0.00    +0.000 C 
ATOM     10  CG  LEU H   2      71.217  29.297  -3.926  0.00  0.00    +0.000 C 
ATOM     11  CD1 LEU H   2      72.055  28.181  -4.545  0.00  0.00    +0.000 C 
ATOM     12  CD2 LEU H   2      71.120  29.143  -2.415  0.00  0.00    +0.000 C 
ATOM     13  N   ARG H   3      73.371  33.474  -2.825  0.00  0.00    +0.000 N 
ATOM     14  H   ARG H   3      73.143  33.219  -1.874  0.00  0.00    +0.000 HD
ATOM     15  CA  ARG H   3      74.206  34.653  -3.068  0.00  0.00    +0.000 C 
ATOM     16  C   ARG H   3      75.683  34.345  -2.838  0.00  0.00    +0.000 C 
ATOM     17  O   ARG H   3      76.022  33.774  -1.799  0.00  0.00    +0.000 OA
ATOM     18  CB  ARG H   3      73.762  35.804  -2.163  0.00  0.00    +0.000 C 
ATOM     19  CG  ARG H   3      72.309  36.194  -2.380  0.00  0.00    +0.000 C 
ATOM     20  CD  ARG H   3      71.867  37.296  -1.440  0.00  0.00    +0.000 C 
ATOM     21  NE  ARG H   3      72.320  38.608  -1.887  0.00  0.00    +0.000 N 
ATOM     22  HE  ARG H   3      73.125  39.004  -1.435  0.00  0.00    +0.000 HD
ATOM     23  CZ  ARG H   3      71.737  39.335  -2.844  0.00  0.00    +0.000 C 
ATOM     24  NH1 ARG H   3      70.660  38.889  -3.510  0.00  0.00    +0.000 N 
ATOM     25 HH11 ARG H   3      70.439  37.903  -3.495  0.00  0.00    +0.000 HD
ATOM     26 HH12 ARG H   3      70.370  39.461  -4.311  0.00  0.00    +0.000 HD
ATOM     27  NH2 ARG H   3      72.245  40.518  -3.151  0.00  0.00    +0.000 N 
ATOM     28 HH21 ARG H   3      73.058  40.901  -2.721  0.00  0.00    +0.000 HD
ATOM     29 HH22 ARG H   3      71.812  41.087  -3.897  0.00  0.00    +0.000 HD
ATOM     30  N   PRO H   4      76.553  34.709  -3.811  0.00  0.00    +0.000 N 
ATOM     31  CA  PRO H   4      78.004  34.579  -3.654  0.00  0.00    +0.000 C 
ATOM     32  C   PRO H   4      78.513  35.307  -2.425  0.00  0.00    +0.000 C 
ATOM     33  O   PRO H   4      78.109  36.446  -2.176  0.00  0.00    +0.000 OA
ATOM     34  CB  PRO H   4      78.578  35.264  -4.901  0.00  0.00    +0.000 C 
ATOM     35  CG  PRO H   4      77.482  35.303  -5.893  0.00  0.00    +0.000 C 
ATOM     36  CD  PRO H   4      76.178  35.182  -5.157  0.00  0.00    +0.000 C 
ATOM     37  N   NME H   5      79.380  34.648  -1.661  0.00  0.00    +0.000 N 
ATOM     38  H   NME H   5      79.603  33.692  -1.889  0.00  0.00    +0.000 HD
ATOM     39  C   NME H   5      80.122  35.313  -0.602  0.00  0.00    +0.000 C 
TER 
REMARK  Name = /home/xianyang/aimnet2_score_pipelines/work/L1234-fixed-receptor-eint-20260921/L2/P56817/prepared.pdb
REMARK                            x       y       z     vdW  Elec       q    Type
REMARK                         _______ _______ _______ _____ _____    ______ ____
ATOM      1  CH3 ACE I   1      61.101  41.493   0.344  0.00  0.00    +0.000 C 
ATOM      2  C   ACE I   1      62.328  42.392   0.159  0.00  0.00    +0.000 C 
ATOM      3  O   ACE I   1      62.226  43.560  -0.227  0.00  0.00    +0.000 OA
ATOM      4  N   GLY I   2      63.495  41.830   0.460  0.00  0.00    +0.000 N 
ATOM      5  H   GLY I   2      63.515  40.902   0.851  0.00  0.00    +0.000 HD
ATOM      6  CA  GLY I   2      64.758  42.580   0.409  0.00  0.00    +0.000 C 
ATOM      7  C   GLY I   2      65.365  42.548  -0.972  0.00  0.00    +0.000 C 
ATOM      8  O   GLY I   2      64.669  42.345  -1.970  0.00  0.00    +0.000 OA
ATOM      9  N   ALA I   3      66.678  42.748  -1.023  0.00  0.00    +0.000 N 
ATOM     10  H   ALA I   3      67.149  42.989  -0.159  0.00  0.00    +0.000 HD
ATOM     11  CA  ALA I   3      67.445  42.755  -2.251  0.00  0.00    +0.000 C 
ATOM     12  C   ALA I   3      67.263  41.473  -3.079  0.00  0.00    +0.000 C 
ATOM     13  O   ALA I   3      67.318  41.512  -4.297  0.00  0.00    +0.000 OA
ATOM     14  CB  ALA I   3      68.921  42.973  -1.924  0.00  0.00    +0.000 C 
ATOM     15  N   VAL I   4      67.048  40.345  -2.405  0.00  0.00    +0.000 N 
ATOM     16  H   VAL I   4      67.137  40.372  -1.394  0.00  0.00    +0.000 HD
ATOM     17  CA  VAL I   4      66.790  39.058  -3.080  0.00  0.00    +0.000 C 
ATOM     18  C   VAL I   4      65.595  39.171  -4.039  0.00  0.00    +0.000 C 
ATOM     19  O   VAL I   4      65.647  38.691  -5.169  0.00  0.00    +0.000 OA
ATOM     20  CB  VAL I   4      66.568  37.936  -2.043  0.00  0.00    +0.000 C 
ATOM     21  CG1 VAL I   4      65.985  36.679  -2.691  0.00  0.00    +0.000 C 
ATOM     22  CG2 VAL I   4      67.888  37.613  -1.334  0.00  0.00    +0.000 C 
ATOM     23  N   ILE I   5      64.534  39.838  -3.598  0.00  0.00    +0.000 N 
ATOM     24  H   ILE I   5      64.594  40.318  -2.710  0.00  0.00    +0.000 HD
ATOM     25  CA  ILE I   5      63.405  40.151  -4.492  0.00  0.00    +0.000 C 
ATOM     26  C   ILE I   5      63.717  41.319  -5.438  0.00  0.00    +0.000 C 
ATOM     27  O   ILE I   5      63.578  41.205  -6.663  0.00  0.00    +0.000 OA
ATOM     28  CB  ILE I   5      62.136  40.476  -3.683  0.00  0.00    +0.000 C 
ATOM     29  CG1 ILE I   5      61.660  39.259  -2.897  0.00  0.00    +0.000 C 
ATOM     30  CG2 ILE I   5      61.019  40.944  -4.601  0.00  0.00    +0.000 C 
ATOM     31  CD1 ILE I   5      61.136  38.121  -3.773  0.00  0.00    +0.000 C 
ATOM     32  N   MET I   6      64.135  42.458  -4.883  0.00  0.00    +0.000 N 
ATOM     33  H   MET I   6      64.277  42.495  -3.878  0.00  0.00    +0.000 HD
ATOM     34  CA  MET I   6      64.246  43.690  -5.678  0.00  0.00    +0.000 C 
ATOM     35  C   MET I   6      65.255  43.612  -6.816  0.00  0.00    +0.000 C 
ATOM     36  O   MET I   6      65.072  44.245  -7.837  0.00  0.00    +0.000 OA
ATOM     37  CB  MET I   6      64.536  44.902  -4.778  0.00  0.00    +0.000 C 
ATOM     38  CG  MET I   6      63.438  45.143  -3.742  0.00  0.00    +0.000 C 
ATOM     39  SD  MET I   6      63.687  46.611  -2.741  0.00  0.00    +0.000 S 
ATOM     40  CE  MET I   6      63.557  47.863  -4.018  0.00  0.00    +0.000 C 
ATOM     41  N   GLU I   7      66.309  42.814  -6.670  0.00  0.00    +0.000 N 
ATOM     42  H   GLU I   7      66.459  42.297  -5.808  0.00  0.00    +0.000 HD
ATOM     43  CA  GLU I   7      67.293  42.695  -7.741  0.00  0.00    +0.000 C 
ATOM     44  C   GLU I   7      66.736  42.042  -9.013  0.00  0.00    +0.000 C 
ATOM     45  O   GLU I   7      67.335  42.159 -10.073  0.00  0.00    +0.000 OA
ATOM     46  CB  GLU I   7      68.549  41.962  -7.245  0.00  0.00    +0.000 C 
ATOM     47  CG  GLU I   7      69.427  42.859  -6.377  0.00  0.00    +0.000 C 
ATOM     48  CD  GLU I   7      70.509  42.108  -5.623  0.00  0.00    +0.000 C 
ATOM     49  OE1 GLU I   7      70.678  40.880  -5.843  0.00  0.00    +0.000 OA
ATOM     50  OE2 GLU I   7      71.198  42.750  -4.797  0.00  0.00    +0.000 OA
ATOM     51  N   GLY I   8      65.575  41.395  -8.917  0.00  0.00    +0.000 N 
ATOM     52  H   GLY I   8      65.116  41.319  -8.016  0.00  0.00    +0.000 HD
ATOM     53  CA  GLY I   8      64.906  40.865 -10.111  0.00  0.00    +0.000 C 
ATOM     54  C   GLY I   8      64.070  41.862 -10.883  0.00  0.00    +0.000 C 
ATOM     55  O   GLY I   8      63.776  41.652 -12.077  0.00  0.00    +0.000 OA
ATOM     56  N   NME I   9      63.698  42.969 -10.231  0.00  0.00    +0.000 N 
ATOM     57  H   NME I   9      64.083  43.153  -9.311  0.00  0.00    +0.000 HD
ATOM     58  C   NME I   9      62.655  43.832 -10.763  0.00  0.00    +0.000 C 
TER 
