REMARK  Name = /data/user_data/xianyang/t3-aimnet-affinity-balanced/L3/Q9HCR9/pocket.pdb
REMARK                            x       y       z     vdW  Elec       q    Type
REMARK                         _______ _______ _______ _____ _____    ______ ____
ATOM      1  N   TYR A   1      -3.380   4.550  34.855  0.00  0.00    +0.000 N 
ATOM      2  CA  TYR A   1      -3.347   6.007  34.959  0.00  0.00    +0.000 C 
ATOM      3  C   TYR A   1      -4.461   6.685  34.177  0.00  0.00    +0.000 C 
ATOM      4  O   TYR A   1      -5.165   7.536  34.729  0.00  0.00    +0.000 OA
ATOM      5  CB  TYR A   1      -1.990   6.544  34.499  0.00  0.00    +0.000 C 
ATOM      6  CG  TYR A   1      -1.937   8.051  34.469  0.00  0.00    +0.000 A 
ATOM      7  CD2 TYR A   1      -1.895   8.783  35.651  0.00  0.00    +0.000 A 
ATOM      8  CD1 TYR A   1      -1.943   8.745  33.262  0.00  0.00    +0.000 A 
ATOM      9  CE2 TYR A   1      -1.858  10.168  35.630  0.00  0.00    +0.000 A 
ATOM     10  CE1 TYR A   1      -1.903  10.130  33.236  0.00  0.00    +0.000 A 
ATOM     11  CZ  TYR A   1      -1.858  10.836  34.422  0.00  0.00    +0.000 A 
ATOM     12  OH  TYR A   1      -1.821  12.208  34.390  0.00  0.00    +0.000 OA
ATOM     13  N   HIS A   2      -4.617   6.370  32.905  0.00  0.00    +0.000 N 
ATOM     14  CA  HIS A   2      -5.600   7.042  32.049  0.00  0.00    +0.000 C 
ATOM     15  C   HIS A   2      -6.981   6.455  32.278  0.00  0.00    +0.000 C 
ATOM     16  O   HIS A   2      -7.576   5.823  31.398  0.00  0.00    +0.000 OA
ATOM     17  CB  HIS A   2      -5.194   6.925  30.581  0.00  0.00    +0.000 C 
ATOM     18  CG  HIS A   2      -3.972   7.689  30.240  0.00  0.00    +0.000 C 
ATOM     19  ND1 HIS A   2      -2.727   7.090  30.036  0.00  0.00    +0.000 NA
ATOM     20  CD2 HIS A   2      -3.794   9.036  30.064  0.00  0.00    +0.000 C 
ATOM     21  CE1 HIS A   2      -1.842   8.031  29.755  0.00  0.00    +0.000 C 
ATOM     22  NE2 HIS A   2      -2.478   9.245  29.770  0.00  0.00    +0.000 NA
ATOM     23  H   TYR A   1      -4.290   4.208  35.165  0.00  0.00    +0.000 HD
ATOM     24  H   TYR A   1      -2.648   4.151  35.443  0.00  0.00    +0.000 HD
ATOM     25  H   TYR A   1      -3.225   4.275  33.885  0.00  0.00    +0.000 HD
ATOM     26  H   TYR A   1      -1.821  12.658  33.568  0.00  0.00    +0.000 HD
ATOM     27  H   HIS A   2      -4.055   5.660  32.518  0.00  0.00    +0.000 HD
TER 
REMARK  Name = /data/user_data/xianyang/t3-aimnet-affinity-balanced/L3/Q9HCR9/pocket.pdb
REMARK                            x       y       z     vdW  Elec       q    Type
REMARK                         _______ _______ _______ _____ _____    ______ ____
ATOM      1  N   HIS B   1      -8.159  10.140  36.441  0.00  0.00    +0.000 N 
ATOM      2  CA  HIS B   1      -7.335  11.092  35.701  0.00  0.00    +0.000 C 
ATOM      3  C   HIS B   1      -8.201  12.156  35.034  0.00  0.00    +0.000 C 
ATOM      4  O   HIS B   1      -7.900  13.346  35.106  0.00  0.00    +0.000 OA
ATOM      5  CB  HIS B   1      -6.481  10.357  34.668  0.00  0.00    +0.000 C 
ATOM      6  CG  HIS B   1      -5.835  11.276  33.672  0.00  0.00    +0.000 A 
ATOM      7  ND1 HIS B   1      -4.900  12.215  34.018  0.00  0.00    +0.000 N 
ATOM      8  CD2 HIS B   1      -6.013  11.379  32.326  0.00  0.00    +0.000 A 
ATOM      9  CE1 HIS B   1      -4.521  12.864  32.928  0.00  0.00    +0.000 A 
ATOM     10  NE2 HIS B   1      -5.177  12.378  31.889  0.00  0.00    +0.000 NA
ATOM     11  H   HIS B   1      -7.560   9.439  36.878  0.00  0.00    +0.000 HD
ATOM     12  H   HIS B   1      -8.807   9.682  35.801  0.00  0.00    +0.000 HD
ATOM     13  H   HIS B   1      -8.685  10.634  37.162  0.00  0.00    +0.000 HD
ATOM     14  H   HIS B   1      -4.564  12.380  34.929  0.00  0.00    +0.000 HD
TER 
REMARK  Name = /data/user_data/xianyang/t3-aimnet-affinity-balanced/L3/Q9HCR9/pocket.pdb
REMARK                            x       y       z     vdW  Elec       q    Type
REMARK                         _______ _______ _______ _____ _____    ______ ____
ATOM      1  N   ASN C   1      -0.082   4.804  23.963  0.00  0.00    +0.000 N 
ATOM      2  CA  ASN C   1      -0.054   6.106  23.323  0.00  0.00    +0.000 C 
ATOM      3  C   ASN C   1      -0.254   5.990  21.819  0.00  0.00    +0.000 C 
ATOM      4  O   ASN C   1      -0.435   4.898  21.270  0.00  0.00    +0.000 OA
ATOM      5  CB  ASN C   1       1.255   6.837  23.649  0.00  0.00    +0.000 C 
ATOM      6  CG  ASN C   1       2.481   6.078  23.192  0.00  0.00    +0.000 C 
ATOM      7  OD1 ASN C   1       2.391   5.073  22.491  0.00  0.00    +0.000 OA
ATOM      8  ND2 ASN C   1       3.650   6.571  23.586  0.00  0.00    +0.000 N 
ATOM      9  H   ASN C   1      -0.958   4.332  23.736  0.00  0.00    +0.000 HD
ATOM     10  H   ASN C   1      -0.010   4.920  24.974  0.00  0.00    +0.000 HD
ATOM     11  H   ASN C   1       0.702   4.244  23.629  0.00  0.00    +0.000 HD
ATOM     12  H   ASN C   1       4.487   6.124  23.323  0.00  0.00    +0.000 HD
ATOM     13  H   ASN C   1       3.680   7.383  24.141  0.00  0.00    +0.000 HD
TER 
REMARK  Name = /data/user_data/xianyang/t3-aimnet-affinity-balanced/L3/Q9HCR9/pocket.pdb
REMARK                            x       y       z     vdW  Elec       q    Type
REMARK                         _______ _______ _______ _____ _____    ______ ____
ATOM      1  N   THR D   1      -5.234  17.885  23.587  0.00  0.00    +0.000 N 
ATOM      2  CA  THR D   1      -4.519  16.989  24.487  0.00  0.00    +0.000 C 
ATOM      3  C   THR D   1      -3.484  16.135  23.766  0.00  0.00    +0.000 C 
ATOM      4  O   THR D   1      -2.708  15.432  24.423  0.00  0.00    +0.000 OA
ATOM      5  CB  THR D   1      -5.497  16.076  25.229  0.00  0.00    +0.000 C 
ATOM      6  OG1 THR D   1      -6.202  15.255  24.298  0.00  0.00    +0.000 OA
ATOM      7  CG2 THR D   1      -6.499  16.913  26.015  0.00  0.00    +0.000 C 
ATOM      8  H   THR D   1      -4.566  18.484  23.102  0.00  0.00    +0.000 HD
ATOM      9  H   THR D   1      -5.881  18.462  24.125  0.00  0.00    +0.000 HD
ATOM     10  H   THR D   1      -5.756  17.336  22.904  0.00  0.00    +0.000 HD
ATOM     11  H   THR D   1      -6.705  15.817  23.688  0.00  0.00    +0.000 HD
TER 
REMARK  Name = /data/user_data/xianyang/t3-aimnet-affinity-balanced/L3/Q9HCR9/pocket.pdb
REMARK                            x       y       z     vdW  Elec       q    Type
REMARK                         _______ _______ _______ _____ _____    ______ ____
ATOM      1  N   LEU E   1      -0.112  15.615  22.493  0.00  0.00    +0.000 N 
ATOM      2  CA  LEU E   1       1.135  16.302  22.809  0.00  0.00    +0.000 C 
ATOM      3  C   LEU E   1       1.863  16.758  21.550  0.00  0.00    +0.000 C 
ATOM      4  O   LEU E   1       2.623  17.724  21.592  0.00  0.00    +0.000 OA
ATOM      5  CB  LEU E   1       2.033  15.394  23.645  0.00  0.00    +0.000 C 
ATOM      6  CG  LEU E   1       3.118  16.097  24.459  0.00  0.00    +0.000 C 
ATOM      7  CD2 LEU E   1       2.496  17.053  25.460  0.00  0.00    +0.000 C 
ATOM      8  CD1 LEU E   1       3.995  15.072  25.161  0.00  0.00    +0.000 C 
ATOM      9  H   LEU E   1      -0.706  16.228  21.935  0.00  0.00    +0.000 HD
ATOM     10  H   LEU E   1      -0.594  15.370  23.358  0.00  0.00    +0.000 HD
ATOM     11  H   LEU E   1       0.092  14.766  21.965  0.00  0.00    +0.000 HD
TER 
REMARK  Name = /data/user_data/xianyang/t3-aimnet-affinity-balanced/L3/Q9HCR9/pocket.pdb
REMARK                            x       y       z     vdW  Elec       q    Type
REMARK                         _______ _______ _______ _____ _____    ______ ____
ATOM      1  N   PHE F   1       3.520  20.549  20.935  0.00  0.00    +0.000 N 
ATOM      2  CA  PHE F   1       4.846  20.900  20.441  0.00  0.00    +0.000 C 
ATOM      3  C   PHE F   1       4.771  21.846  19.253  0.00  0.00    +0.000 C 
ATOM      4  O   PHE F   1       5.632  22.715  19.089  0.00  0.00    +0.000 OA
ATOM      5  CB  PHE F   1       5.625  19.639  20.060  0.00  0.00    +0.000 C 
ATOM      6  CG  PHE F   1       6.072  18.825  21.243  0.00  0.00    +0.000 A 
ATOM      7  CD2 PHE F   1       6.927  19.370  22.187  0.00  0.00    +0.000 A 
ATOM      8  CD1 PHE F   1       5.646  17.513  21.399  0.00  0.00    +0.000 A 
ATOM      9  CE2 PHE F   1       7.349  18.624  23.273  0.00  0.00    +0.000 A 
ATOM     10  CE1 PHE F   1       6.066  16.761  22.481  0.00  0.00    +0.000 A 
ATOM     11  CZ  PHE F   1       6.919  17.318  23.421  0.00  0.00    +0.000 A 
ATOM     12  H   PHE F   1       3.014  21.399  21.184  0.00  0.00    +0.000 HD
ATOM     13  H   PHE F   1       3.610  19.953  21.758  0.00  0.00    +0.000 HD
ATOM     14  H   PHE F   1       3.008  20.049  20.208  0.00  0.00    +0.000 HD
TER 
REMARK  Name = /data/user_data/xianyang/t3-aimnet-affinity-balanced/L3/Q9HCR9/pocket.pdb
REMARK                            x       y       z     vdW  Elec       q    Type
REMARK                         _______ _______ _______ _____ _____    ______ ____
ATOM      1  N   ASP G   1      -3.866  18.555  31.627  0.00  0.00    +0.000 N 
ATOM      2  CA  ASP G   1      -3.521  17.166  31.354  0.00  0.00    +0.000 C 
ATOM      3  C   ASP G   1      -2.216  16.772  32.041  0.00  0.00    +0.000 C 
ATOM      4  O   ASP G   1      -2.042  15.619  32.448  0.00  0.00    +0.000 OA
ATOM      5  CB  ASP G   1      -3.418  16.952  29.840  0.00  0.00    +0.000 C 
ATOM      6  CG  ASP G   1      -3.468  15.486  29.452  0.00  0.00    +0.000 C 
ATOM      7  OD2 ASP G   1      -3.933  14.661  30.267  0.00  0.00    +0.000 OA
ATOM      8  OD1 ASP G   1      -3.054  15.165  28.315  0.00  0.00    +0.000 OA
ATOM      9  N   LEU G   2      -1.295  17.720  32.173  0.00  0.00    +0.000 N 
ATOM     10  CA  LEU G   2      -0.024  17.486  32.842  0.00  0.00    +0.000 C 
ATOM     11  C   LEU G   2      -0.051  17.943  34.295  0.00  0.00    +0.000 C 
ATOM     12  O   LEU G   2       1.005  18.110  34.908  0.00  0.00    +0.000 OA
ATOM     13  CB  LEU G   2       1.110  18.200  32.097  0.00  0.00    +0.000 C 
ATOM     14  CG  LEU G   2       1.220  17.939  30.594  0.00  0.00    +0.000 C 
ATOM     15  CD1 LEU G   2       2.363  18.750  30.005  0.00  0.00    +0.000 C 
ATOM     16  CD2 LEU G   2       1.417  16.458  30.331  0.00  0.00    +0.000 C 
ATOM     17  H   ASP G   1      -4.740  18.787  31.156  0.00  0.00    +0.000 HD
ATOM     18  H   ASP G   1      -3.123  19.164  31.284  0.00  0.00    +0.000 HD
ATOM     19  H   ASP G   1      -3.977  18.687  32.632  0.00  0.00    +0.000 HD
ATOM     20  H   LEU G   2      -1.479  18.614  31.805  0.00  0.00    +0.000 HD
TER 
REMARK  Name = /data/user_data/xianyang/t3-aimnet-affinity-balanced/L3/Q9HCR9/pocket.pdb
REMARK                            x       y       z     vdW  Elec       q    Type
REMARK                         _______ _______ _______ _____ _____    ______ ____
ATOM      1  N   ALA H   1       3.253   9.654  39.204  0.00  0.00    +0.000 N 
ATOM      2  CA  ALA H   1       4.391   9.253  38.385  0.00  0.00    +0.000 C 
ATOM      3  C   ALA H   1       4.559   7.737  38.376  0.00  0.00    +0.000 C 
ATOM      4  O   ALA H   1       4.896   7.152  37.343  0.00  0.00    +0.000 OA
ATOM      5  CB  ALA H   1       5.666   9.932  38.888  0.00  0.00    +0.000 C 
ATOM      6  H   ALA H   1       2.409   9.196  38.861  0.00  0.00    +0.000 HD
ATOM      7  H   ALA H   1       3.136  10.666  39.152  0.00  0.00    +0.000 HD
ATOM      8  H   ALA H   1       3.418   9.380  40.173  0.00  0.00    +0.000 HD
TER 
REMARK  Name = /data/user_data/xianyang/t3-aimnet-affinity-balanced/L3/Q9HCR9/pocket.pdb
REMARK                            x       y       z     vdW  Elec       q    Type
REMARK                         _______ _______ _______ _____ _____    ______ ____
ATOM      1  N   VAL I   1       1.814   6.361  36.070  0.00  0.00    +0.000 N 
ATOM      2  CA  VAL I   1       2.136   6.589  34.667  0.00  0.00    +0.000 C 
ATOM      3  C   VAL I   1       3.263   5.662  34.228  0.00  0.00    +0.000 C 
ATOM      4  O   VAL I   1       3.212   5.059  33.150  0.00  0.00    +0.000 OA
ATOM      5  CB  VAL I   1       2.509   8.065  34.432  0.00  0.00    +0.000 C 
ATOM      6  CG1 VAL I   1       3.000   8.262  33.009  0.00  0.00    +0.000 C 
ATOM      7  CG2 VAL I   1       1.319   8.964  34.714  0.00  0.00    +0.000 C 
ATOM      8  N   THR I   2       4.286   5.538  35.077  0.00  0.00    +0.000 N 
ATOM      9  CA  THR I   2       5.411   4.681  34.734  0.00  0.00    +0.000 C 
ATOM     10  C   THR I   2       4.980   3.224  34.622  0.00  0.00    +0.000 C 
ATOM     11  O   THR I   2       5.427   2.505  33.722  0.00  0.00    +0.000 OA
ATOM     12  CB  THR I   2       6.524   4.834  35.774  0.00  0.00    +0.000 C 
ATOM     13  OG1 THR I   2       6.937   6.203  35.833  0.00  0.00    +0.000 OA
ATOM     14  CG2 THR I   2       7.716   3.970  35.410  0.00  0.00    +0.000 C 
ATOM     15  H   VAL I   1       1.570   5.380  36.208  0.00  0.00    +0.000 HD
ATOM     16  H   VAL I   1       1.025   6.949  36.338  0.00  0.00    +0.000 HD
ATOM     17  H   VAL I   1       2.622   6.594  36.647  0.00  0.00    +0.000 HD
ATOM     18  H   THR I   2       4.279   6.025  35.933  0.00  0.00    +0.000 HD
ATOM     19  H   THR I   2       7.277   6.476  34.966  0.00  0.00    +0.000 HD
TER 
REMARK  Name = /data/user_data/xianyang/t3-aimnet-affinity-balanced/L3/Q9HCR9/pocket.pdb
REMARK                            x       y       z     vdW  Elec       q    Type
REMARK                         _______ _______ _______ _____ _____    ______ ____
ATOM      1  N   PHE J   1       3.293   2.850  31.395  0.00  0.00    +0.000 N 
ATOM      2  CA  PHE J   1       4.289   2.863  30.330  0.00  0.00    +0.000 C 
ATOM      3  C   PHE J   1       5.040   1.538  30.257  0.00  0.00    +0.000 C 
ATOM      4  O   PHE J   1       5.363   1.056  29.169  0.00  0.00    +0.000 OA
ATOM      5  CB  PHE J   1       5.281   4.009  30.538  0.00  0.00    +0.000 C 
ATOM      6  CG  PHE J   1       4.723   5.364  30.192  0.00  0.00    +0.000 A 
ATOM      7  CD1 PHE J   1       3.446   5.502  29.676  0.00  0.00    +0.000 A 
ATOM      8  CD2 PHE J   1       5.494   6.509  30.371  0.00  0.00    +0.000 A 
ATOM      9  CE1 PHE J   1       2.936   6.749  29.357  0.00  0.00    +0.000 A 
ATOM     10  CE2 PHE J   1       4.999   7.752  30.050  0.00  0.00    +0.000 A 
ATOM     11  CZ  PHE J   1       3.718   7.875  29.547  0.00  0.00    +0.000 A 
ATOM     12  H   PHE J   1       2.641   2.081  31.241  0.00  0.00    +0.000 HD
ATOM     13  H   PHE J   1       2.783   3.734  31.395  0.00  0.00    +0.000 HD
ATOM     14  H   PHE J   1       3.758   2.726  32.294  0.00  0.00    +0.000 HD
TER 
REMARK  Name = /data/user_data/xianyang/t3-aimnet-affinity-balanced/L3/Q9HCR9/pocket.pdb
REMARK                            x       y       z     vdW  Elec       q    Type
REMARK                         _______ _______ _______ _____ _____    ______ ____
ATOM      1  N   SER K   1      11.715   2.141  24.265  0.00  0.00    +0.000 N 
ATOM      2  CA  SER K   1      12.545   3.234  24.738  0.00  0.00    +0.000 C 
ATOM      3  CB  SER K   1      12.648   3.196  26.264  0.00  0.00    +0.000 C 
ATOM      4  OG  SER K   1      11.926   2.465  26.943  0.00  0.00    +0.000 OA
ATOM      5  C   SER K   1      11.986   4.578  24.264  0.00  0.00    +0.000 C 
ATOM      6  O   SER K   1      10.672   4.772  24.747  0.00  0.00    +0.000 OA
ATOM      7  H   SER K   1      11.654   2.176  23.247  0.00  0.00    +0.000 HD
ATOM      8  H   SER K   1      10.781   2.226  24.665  0.00  0.00    +0.000 HD
ATOM      9  H   SER K   1      12.128   1.253  24.550  0.00  0.00    +0.000 HD
ATOM     10  H   SER K   1      10.097   4.067  24.412  0.00  0.00    +0.000 HD
TER 
REMARK  Name = /data/user_data/xianyang/t3-aimnet-affinity-balanced/L3/Q9HCR9/pocket.pdb
REMARK                            x       y       z     vdW  Elec       q    Type
REMARK                         _______ _______ _______ _____ _____    ______ ____
ATOM      1  N   ILE L   1      11.784   5.119  28.718  0.00  0.00    +0.000 N 
ATOM      2  CA  ILE L   1      10.639   5.447  29.549  0.00  0.00    +0.000 C 
ATOM      3  C   ILE L   1       9.632   4.306  29.583  0.00  0.00    +0.000 C 
ATOM      4  O   ILE L   1       8.859   4.186  30.543  0.00  0.00    +0.000 OA
ATOM      5  CB  ILE L   1       9.978   6.754  29.061  0.00  0.00    +0.000 C 
ATOM      6  CG1 ILE L   1       8.907   7.246  30.045  0.00  0.00    +0.000 C 
ATOM      7  CG2 ILE L   1       9.391   6.558  27.673  0.00  0.00    +0.000 C 
ATOM      8  CD1 ILE L   1       9.439   7.554  31.426  0.00  0.00    +0.000 C 
ATOM      9  N   PHE L   2       9.619   3.459  28.578  0.00  0.00    +0.000 N 
ATOM     10  CA  PHE L   2       8.684   2.344  28.495  0.00  0.00    +0.000 C 
ATOM     11  C   PHE L   2       9.316   1.001  28.846  0.00  0.00    +0.000 C 
ATOM     12  O   PHE L   2       8.633  -0.025  28.812  0.00  0.00    +0.000 OA
ATOM     13  CB  PHE L   2       8.085   2.265  27.088  0.00  0.00    +0.000 C 
ATOM     14  CG  PHE L   2       7.365   3.514  26.659  0.00  0.00    +0.000 A 
ATOM     15  CD2 PHE L   2       6.162   3.865  27.242  0.00  0.00    +0.000 A 
ATOM     16  CD1 PHE L   2       7.893   4.324  25.669  0.00  0.00    +0.000 A 
ATOM     17  CE2 PHE L   2       5.494   5.009  26.847  0.00  0.00    +0.000 A 
ATOM     18  CE1 PHE L   2       7.232   5.471  25.268  0.00  0.00    +0.000 A 
ATOM     19  CZ  PHE L   2       6.031   5.815  25.855  0.00  0.00    +0.000 A 
ATOM     20  H   ILE L   1      12.438   5.902  28.716  0.00  0.00    +0.000 HD
ATOM     21  H   ILE L   1      11.471   4.935  27.765  0.00  0.00    +0.000 HD
ATOM     22  H   ILE L   1      12.247   4.290  29.089  0.00  0.00    +0.000 HD
ATOM     23  H   PHE L   2      10.269   3.583  27.849  0.00  0.00    +0.000 HD
TER 
REMARK  Name = /data/user_data/xianyang/t3-aimnet-affinity-balanced/L3/Q9HCR9/pocket.pdb
REMARK                            x       y       z     vdW  Elec       q    Type
REMARK                         _______ _______ _______ _____ _____    ______ ____
ATOM      1  N   LEU M   1      14.384   6.228  36.236  0.00  0.00    +0.000 N 
ATOM      2  CA  LEU M   1      13.154   6.993  36.407  0.00  0.00    +0.000 C 
ATOM      3  C   LEU M   1      13.410   8.439  36.831  0.00  0.00    +0.000 C 
ATOM      4  O   LEU M   1      12.790   9.354  36.271  0.00  0.00    +0.000 OA
ATOM      5  CB  LEU M   1      12.234   6.292  37.410  0.00  0.00    +0.000 C 
ATOM      6  CG  LEU M   1      10.932   7.029  37.746  0.00  0.00    +0.000 C 
ATOM      7  CD1 LEU M   1      10.089   7.212  36.493  0.00  0.00    +0.000 C 
ATOM      8  CD2 LEU M   1      10.158   6.264  38.809  0.00  0.00    +0.000 C 
ATOM      9  H   LEU M   1      14.989   6.703  35.567  0.00  0.00    +0.000 HD
ATOM     10  H   LEU M   1      14.159   5.296  35.889  0.00  0.00    +0.000 HD
ATOM     11  H   LEU M   1      14.864   6.150  37.133  0.00  0.00    +0.000 HD
TER 
REMARK  Name = /data/user_data/xianyang/t3-aimnet-affinity-balanced/L3/Q9HCR9/pocket.pdb
REMARK                            x       y       z     vdW  Elec       q    Type
REMARK                         _______ _______ _______ _____ _____    ______ ____
ATOM      1  N   LEU N   1      14.527  10.410  33.786  0.00  0.00    +0.000 N 
ATOM      2  CA  LEU N   1      13.449  10.567  32.820  0.00  0.00    +0.000 C 
ATOM      3  C   LEU N   1      12.412  11.566  33.313  0.00  0.00    +0.000 C 
ATOM      4  O   LEU N   1      11.854  12.327  32.522  0.00  0.00    +0.000 OA
ATOM      5  CB  LEU N   1      12.806   9.206  32.536  0.00  0.00    +0.000 C 
ATOM      6  CG  LEU N   1      13.726   8.179  31.879  0.00  0.00    +0.000 C 
ATOM      7  CD2 LEU N   1      13.056   6.818  31.805  0.00  0.00    +0.000 C 
ATOM      8  CD1 LEU N   1      14.138   8.652  30.491  0.00  0.00    +0.000 C 
ATOM      9  N   GLN N   2      12.143  11.592  34.613  0.00  0.00    +0.000 N 
ATOM     10  CA  GLN N   2      11.226  12.578  35.166  0.00  0.00    +0.000 C 
ATOM     11  C   GLN N   2      11.801  13.985  35.024  0.00  0.00    +0.000 C 
ATOM     12  O   GLN N   2      11.065  14.937  34.743  0.00  0.00    +0.000 OA
ATOM     13  CB  GLN N   2      10.929  12.271  36.631  0.00  0.00    +0.000 C 
ATOM     14  CG  GLN N   2      10.039  11.065  36.852  0.00  0.00    +0.000 C 
ATOM     15  CD  GLN N   2       8.654  11.272  36.295  0.00  0.00    +0.000 C 
ATOM     16  OE1 GLN N   2       8.208  10.542  35.409  0.00  0.00    +0.000 OA
ATOM     17  NE2 GLN N   2       7.951  12.276  36.804  0.00  0.00    +0.000 N 
ATOM     18  H   LEU N   1      15.206   9.737  33.431  0.00  0.00    +0.000 HD
ATOM     19  H   LEU N   1      14.145  10.074  34.670  0.00  0.00    +0.000 HD
ATOM     20  H   LEU N   1      14.985  11.309  33.933  0.00  0.00    +0.000 HD
ATOM     21  H   GLN N   2      12.569  10.936  35.211  0.00  0.00    +0.000 HD
ATOM     22  H   GLN N   2       7.040  12.455  36.476  0.00  0.00    +0.000 HD
ATOM     23  H   GLN N   2       8.340  12.841  37.510  0.00  0.00    +0.000 HD
TER 
REMARK  Name = /data/user_data/xianyang/t3-aimnet-affinity-balanced/L3/Q9HCR9/pocket.pdb
REMARK                            x       y       z     vdW  Elec       q    Type
REMARK                         _______ _______ _______ _____ _____    ______ ____
ATOM      1  N   GLU O   1      13.872  15.007  32.665  0.00  0.00    +0.000 N 
ATOM      2  CA  GLU O   1      13.754  15.365  31.259  0.00  0.00    +0.000 C 
ATOM      3  C   GLU O   1      12.331  15.789  30.925  0.00  0.00    +0.000 C 
ATOM      4  O   GLU O   1      12.112  16.768  30.202  0.00  0.00    +0.000 OA
ATOM      5  CB  GLU O   1      14.170  14.190  30.378  0.00  0.00    +0.000 C 
ATOM      6  CG  GLU O   1      15.640  13.819  30.483  0.00  0.00    +0.000 C 
ATOM      7  CD  GLU O   1      15.995  12.616  29.624  0.00  0.00    +0.000 C 
ATOM      8  OE1 GLU O   1      15.082  12.019  29.027  0.00  0.00    +0.000 OA
ATOM      9  OE2 GLU O   1      17.190  12.274  29.551  0.00  0.00    +0.000 OA
ATOM     10  N   TRP O   2      11.368  15.065  31.437  0.00  0.00    +0.000 N 
ATOM     11  CA  TRP O   2       9.969  15.390  31.182  0.00  0.00    +0.000 C 
ATOM     12  C   TRP O   2       9.605  16.754  31.757  0.00  0.00    +0.000 C 
ATOM     13  O   TRP O   2       8.961  17.570  31.094  0.00  0.00    +0.000 OA
ATOM     14  CB  TRP O   2       9.073  14.301  31.766  0.00  0.00    +0.000 C 
ATOM     15  CG  TRP O   2       7.613  14.623  31.739  0.00  0.00    +0.000 C 
ATOM     16  CD1 TRP O   2       6.815  14.880  32.807  0.00  0.00    +0.000 C 
ATOM     17  CD2 TRP O   2       6.783  14.732  30.579  0.00  0.00    +0.000 A 
ATOM     18  NE1 TRP O   2       5.534  15.136  32.393  0.00  0.00    +0.000 NA
ATOM     19  CE2 TRP O   2       5.482  15.052  31.033  0.00  0.00    +0.000 A 
ATOM     20  CE3 TRP O   2       7.005  14.587  29.202  0.00  0.00    +0.000 A 
ATOM     21  CZ2 TRP O   2       4.419  15.226  30.154  0.00  0.00    +0.000 A 
ATOM     22  CZ3 TRP O   2       5.946  14.756  28.338  0.00  0.00    +0.000 A 
ATOM     23  CH2 TRP O   2       4.668  15.073  28.813  0.00  0.00    +0.000 A 
ATOM     24  H   GLU O   1      14.832  14.727  32.865  0.00  0.00    +0.000 HD
ATOM     25  H   GLU O   1      13.242  14.233  32.873  0.00  0.00    +0.000 HD
ATOM     26  H   GLU O   1      13.625  15.811  33.242  0.00  0.00    +0.000 HD
ATOM     27  H   TRP O   2      11.591  14.290  32.002  0.00  0.00    +0.000 HD
TER 
REMARK  Name = /data/user_data/xianyang/t3-aimnet-affinity-balanced/L3/Q9HCR9/pocket.pdb
REMARK                            x       y       z     vdW  Elec       q    Type
REMARK                         _______ _______ _______ _____ _____    ______ ____
ATOM      1  N   SER P   1      11.696  19.768  29.858  0.00  0.00    +0.000 N 
ATOM      2  CA  SER P   1      11.425  20.005  28.447  0.00  0.00    +0.000 C 
ATOM      3  C   SER P   1       9.955  20.277  28.157  0.00  0.00    +0.000 C 
ATOM      4  O   SER P   1       9.645  20.960  27.176  0.00  0.00    +0.000 OA
ATOM      5  CB  SER P   1      11.905  18.817  27.610  0.00  0.00    +0.000 C 
ATOM      6  OG  SER P   1      11.220  17.632  27.962  0.00  0.00    +0.000 OA
ATOM      7  N   ILE P   2       9.045  19.775  28.985  0.00  0.00    +0.000 N 
ATOM      8  CA  ILE P   2       7.621  19.865  28.692  0.00  0.00    +0.000 C 
ATOM      9  C   ILE P   2       6.884  20.695  29.733  0.00  0.00    +0.000 C 
ATOM     10  O   ILE P   2       6.220  21.679  29.395  0.00  0.00    +0.000 OA
ATOM     11  CB  ILE P   2       6.986  18.458  28.588  0.00  0.00    +0.000 C 
ATOM     12  CG1 ILE P   2       7.776  17.572  27.625  0.00  0.00    +0.000 C 
ATOM     13  CG2 ILE P   2       5.535  18.568  28.155  0.00  0.00    +0.000 C 
ATOM     14  CD1 ILE P   2       7.821  18.098  26.202  0.00  0.00    +0.000 C 
ATOM     15  H   SER P   1      12.692  19.593  29.988  0.00  0.00    +0.000 HD
ATOM     16  H   SER P   1      11.164  18.957  30.175  0.00  0.00    +0.000 HD
ATOM     17  H   SER P   1      11.421  20.588  30.399  0.00  0.00    +0.000 HD
ATOM     18  H   SER P   1      10.271  17.747  27.799  0.00  0.00    +0.000 HD
ATOM     19  H   ILE P   2       9.339  19.333  29.814  0.00  0.00    +0.000 HD
TER 
