REMARK  Name = /home/xianyang/aimnet2_score_pipelines/work/L1234-fixed-receptor-eint-20260921/L3/Q96LB1/prepared.pdb
REMARK                            x       y       z     vdW  Elec       q    Type
REMARK                         _______ _______ _______ _____ _____    ______ ____
ATOM      1  CH3 ACE A   1      90.149  63.582  75.651  0.00  0.00    +0.000 C 
ATOM      2  C   ACE A   1      89.958  62.210  75.025  0.00  0.00    +0.000 C 
ATOM      3  O   ACE A   1      88.850  61.677  74.998  0.00  0.00    +0.000 OA
ATOM      4  N   LEU A   2      91.050  61.641  74.520  0.00  0.00    +0.000 N 
ATOM      5  H   LEU A   2      91.911  62.164  74.529  0.00  0.00    +0.000 HD
ATOM      6  CA  LEU A   2      91.033  60.352  73.845  0.00  0.00    +0.000 C 
ATOM      7  C   LEU A   2      91.395  59.221  74.814  0.00  0.00    +0.000 C 
ATOM      8  O   LEU A   2      91.534  58.061  74.407  0.00  0.00    +0.000 OA
ATOM      9  CB  LEU A   2      91.966  60.430  72.623  0.00  0.00    +0.000 C 
ATOM     10  CG  LEU A   2      92.262  59.385  71.533  0.00  0.00    +0.000 C 
ATOM     11  CD1 LEU A   2      90.990  59.078  70.768  0.00  0.00    +0.000 C 
ATOM     12  CD2 LEU A   2      93.362  59.851  70.589  0.00  0.00    +0.000 C 
ATOM     13  N   LEU A   3      91.492  59.542  76.109  0.00  0.00    +0.000 N 
ATOM     14  H   LEU A   3      91.336  60.499  76.377  0.00  0.00    +0.000 HD
ATOM     15  CA  LEU A   3      91.872  58.576  77.135  0.00  0.00    +0.000 C 
ATOM     16  C   LEU A   3      90.814  57.503  77.361  0.00  0.00    +0.000 C 
ATOM     17  O   LEU A   3      91.163  56.341  77.588  0.00  0.00    +0.000 OA
ATOM     18  CB  LEU A   3      92.160  59.299  78.455  0.00  0.00    +0.000 C 
ATOM     19  CG  LEU A   3      93.324  60.293  78.512  0.00  0.00    +0.000 C 
ATOM     20  CD1 LEU A   3      92.828  61.732  78.424  0.00  0.00    +0.000 C 
ATOM     21  CD2 LEU A   3      94.140  60.080  79.777  0.00  0.00    +0.000 C 
ATOM     22  N   CYS A   4      89.533  57.858  77.304  0.00  0.00    +0.000 N 
ATOM     23  H   CYS A   4      89.313  58.820  77.122  0.00  0.00    +0.000 HD
ATOM     24  CA  CYS A   4      88.465  56.875  77.450  0.00  0.00    +0.000 C 
ATOM     25  C   CYS A   4      87.491  56.894  76.282  0.00  0.00    +0.000 C 
ATOM     26  O   CYS A   4      87.039  55.831  75.841  0.00  0.00    +0.000 OA
ATOM     27  CB  CYS A   4      87.719  57.111  78.768  0.00  0.00    +0.000 C 
ATOM     28  SG  CYS A   4      88.733  56.802  80.224  0.00  0.00    +0.000 S 
ATOM     29  N   NME A   5      87.149  58.072  75.770  0.00  0.00    +0.000 N 
ATOM     30  H   NME A   5      87.523  58.916  76.172  0.00  0.00    +0.000 HD
ATOM     31  C   NME A   5      86.416  58.174  74.526  0.00  0.00    +0.000 C 
ATOM     32  CH3 ACE C   1      89.599  75.305  87.855  0.00  0.00    +0.000 C 
ATOM     33  C   ACE C   1      90.179  74.471  88.976  0.00  0.00    +0.000 C 
ATOM     34  O   ACE C   1      91.395  74.273  89.030  0.00  0.00    +0.000 OA
ATOM     35  N   ILE C   2      89.338  73.950  89.874  0.00  0.00    +0.000 N 
ATOM     36  H   ILE C   2      88.362  74.203  89.881  0.00  0.00    +0.000 HD
ATOM     37  CA  ILE C   2      89.918  73.175  90.969  0.00  0.00    +0.000 C 
ATOM     38  C   ILE C   2      90.235  71.755  90.514  0.00  0.00    +0.000 C 
ATOM     39  O   ILE C   2      91.032  71.056  91.147  0.00  0.00    +0.000 OA
ATOM     40  CB  ILE C   2      89.015  73.177  92.215  0.00  0.00    +0.000 C 
ATOM     41  CG1 ILE C   2      87.671  72.518  91.925  0.00  0.00    +0.000 C 
ATOM     42  CG2 ILE C   2      88.833  74.596  92.724  0.00  0.00    +0.000 C 
ATOM     43  CD1 ILE C   2      86.824  72.275  93.157  0.00  0.00    +0.000 C 
ATOM     44  N   GLN C   3      89.636  71.304  89.411  0.00  0.00    +0.000 N 
ATOM     45  H   GLN C   3      88.937  71.858  88.944  0.00  0.00    +0.000 HD
ATOM     46  CA  GLN C   3      90.050  70.014  88.883  0.00  0.00    +0.000 C 
ATOM     47  C   GLN C   3      91.192  70.122  87.887  0.00  0.00    +0.000 C 
ATOM     48  O   GLN C   3      91.830  69.108  87.600  0.00  0.00    +0.000 OA
ATOM     49  CB  GLN C   3      88.862  69.279  88.257  0.00  0.00    +0.000 C 
ATOM     50  CG  GLN C   3      88.452  69.752  86.892  0.00  0.00    +0.000 C 
ATOM     51  CD  GLN C   3      88.935  68.857  85.783  0.00  0.00    +0.000 C 
ATOM     52  OE1 GLN C   3      89.069  67.648  85.957  0.00  0.00    +0.000 OA
ATOM     53  NE2 GLN C   3      89.214  69.451  84.632  0.00  0.00    +0.000 N 
ATOM     54 HE21 GLN C   3      89.527  68.828  83.904  0.00  0.00    +0.000 HD
ATOM     55 HE22 GLN C   3      89.021  70.421  84.473  0.00  0.00    +0.000 HD
ATOM     56  N   TRP C   4      91.463  71.304  87.347  0.00  0.00    +0.000 N 
ATOM     57  H   TRP C   4      90.932  72.112  87.625  0.00  0.00    +0.000 HD
ATOM     58  CA  TRP C   4      92.609  71.497  86.477  0.00  0.00    +0.000 C 
ATOM     59  C   TRP C   4      93.844  71.964  87.230  0.00  0.00    +0.000 C 
ATOM     60  O   TRP C   4      94.962  71.785  86.744  0.00  0.00    +0.000 OA
ATOM     61  CB  TRP C   4      92.255  72.502  85.378  0.00  0.00    +0.000 C 
ATOM     62  CG  TRP C   4      93.256  72.607  84.286  0.00  0.00    +0.000 A 
ATOM     63  CD1 TRP C   4      94.186  73.584  84.130  0.00  0.00    +0.000 A 
ATOM     64  CD2 TRP C   4      93.429  71.708  83.187  0.00  0.00    +0.000 A 
ATOM     65  NE1 TRP C   4      94.936  73.352  83.006  0.00  0.00    +0.000 N 
ATOM     66  HE1 TRP C   4      95.790  73.860  82.785  0.00  0.00    +0.000 HD
ATOM     67  CE2 TRP C   4      94.490  72.205  82.407  0.00  0.00    +0.000 A 
ATOM     68  CE3 TRP C   4      92.792  70.530  82.787  0.00  0.00    +0.000 A 
ATOM     69  CZ2 TRP C   4      94.926  71.568  81.250  0.00  0.00    +0.000 A 
ATOM     70  CZ3 TRP C   4      93.229  69.897  81.642  0.00  0.00    +0.000 A 
ATOM     71  CH2 TRP C   4      94.286  70.417  80.887  0.00  0.00    +0.000 A 
ATOM     72  N   PHE C   5      93.689  72.538  88.421  0.00  0.00    +0.000 N 
ATOM     73  H   PHE C   5      92.775  72.867  88.694  0.00  0.00    +0.000 HD
ATOM     74  CA  PHE C   5      94.843  73.077  89.120  0.00  0.00    +0.000 C 
ATOM     75  C   PHE C   5      95.111  72.441  90.482  0.00  0.00    +0.000 C 
ATOM     76  O   PHE C   5      96.223  72.588  90.995  0.00  0.00    +0.000 OA
ATOM     77  CB  PHE C   5      94.694  74.592  89.282  0.00  0.00    +0.000 C 
ATOM     78  CG  PHE C   5      94.682  75.352  87.980  0.00  0.00    +0.000 A 
ATOM     79  CD1 PHE C   5      93.573  76.096  87.595  0.00  0.00    +0.000 A 
ATOM     80  CD2 PHE C   5      95.782  75.324  87.141  0.00  0.00    +0.000 A 
ATOM     81  CE1 PHE C   5      93.564  76.796  86.400  0.00  0.00    +0.000 A 
ATOM     82  CE2 PHE C   5      95.783  76.033  85.946  0.00  0.00    +0.000 A 
ATOM     83  CZ  PHE C   5      94.667  76.763  85.578  0.00  0.00    +0.000 A 
ATOM     84  N   LEU C   6      94.148  71.746  91.080  0.00  0.00    +0.000 N 
ATOM     85  H   LEU C   6      93.240  71.691  90.647  0.00  0.00    +0.000 HD
ATOM     86  CA  LEU C   6      94.395  71.064  92.354  0.00  0.00    +0.000 C 
ATOM     87  C   LEU C   6      94.273  69.555  92.280  0.00  0.00    +0.000 C 
ATOM     88  O   LEU C   6      95.182  68.859  92.736  0.00  0.00    +0.000 OA
ATOM     89  CB  LEU C   6      93.438  71.527  93.457  0.00  0.00    +0.000 C 
ATOM     90  CG  LEU C   6      93.456  72.931  94.021  0.00  0.00    +0.000 C 
ATOM     91  CD1 LEU C   6      92.305  73.117  94.984  0.00  0.00    +0.000 C 
ATOM     92  CD2 LEU C   6      94.771  73.136  94.738  0.00  0.00    +0.000 C 
ATOM     93  N   ILE C   7      93.160  69.047  91.745  0.00  0.00    +0.000 N 
ATOM     94  H   ILE C   7      92.462  69.713  91.429  0.00  0.00    +0.000 HD
ATOM     95  CA  ILE C   7      92.747  67.654  91.900  0.00  0.00    +0.000 C 
ATOM     96  C   ILE C   7      93.667  66.687  91.167  0.00  0.00    +0.000 C 
ATOM     97  O   ILE C   7      93.963  65.601  91.685  0.00  0.00    +0.000 OA
ATOM     98  CB  ILE C   7      91.268  67.589  91.473  0.00  0.00    +0.000 C 
ATOM     99  CG1 ILE C   7      90.383  68.080  92.619  0.00  0.00    +0.000 C 
ATOM    100  CG2 ILE C   7      90.835  66.221  90.966  0.00  0.00    +0.000 C 
ATOM    101  CD1 ILE C   7      88.949  68.271  92.238  0.00  0.00    +0.000 C 
ATOM    102  N   LEU C   8      94.235  67.104  90.042  0.00  0.00    +0.000 N 
ATOM    103  H   LEU C   8      93.972  67.995  89.648  0.00  0.00    +0.000 HD
ATOM    104  CA  LEU C   8      95.181  66.267  89.325  0.00  0.00    +0.000 C 
ATOM    105  C   LEU C   8      96.560  66.208  89.975  0.00  0.00    +0.000 C 
ATOM    106  O   LEU C   8      97.406  65.436  89.514  0.00  0.00    +0.000 OA
ATOM    107  CB  LEU C   8      95.300  66.752  87.884  0.00  0.00    +0.000 C 
ATOM    108  CG  LEU C   8      93.991  66.558  87.122  0.00  0.00    +0.000 C 
ATOM    109  CD1 LEU C   8      94.068  67.167  85.736  0.00  0.00    +0.000 C 
ATOM    110  CD2 LEU C   8      93.624  65.088  87.047  0.00  0.00    +0.000 C 
ATOM    111  N   TRP C   9      96.822  66.994  91.018  0.00  0.00    +0.000 N 
ATOM    112  H   TRP C   9      96.148  67.677  91.332  0.00  0.00    +0.000 HD
ATOM    113  CA  TRP C   9      98.071  66.829  91.745  0.00  0.00    +0.000 C 
ATOM    114  C   TRP C   9      97.891  66.212  93.124  0.00  0.00    +0.000 C 
ATOM    115  O   TRP C   9      98.849  65.656  93.670  0.00  0.00    +0.000 OA
ATOM    116  CB  TRP C   9      98.792  68.166  91.890  0.00  0.00    +0.000 C 
ATOM    117  CG  TRP C   9      99.169  68.765  90.597  0.00  0.00    +0.000 A 
ATOM    118  CD1 TRP C   9      98.477  69.701  89.896  0.00  0.00    +0.000 A 
ATOM    119  CD2 TRP C   9     100.294  68.412  89.794  0.00  0.00    +0.000 A 
ATOM    120  NE1 TRP C   9      99.129  69.995  88.725  0.00  0.00    +0.000 N 
ATOM    121  HE1 TRP C   9      98.949  70.806  88.117  0.00  0.00    +0.000 HD
ATOM    122  CE2 TRP C   9     100.248  69.211  88.637  0.00  0.00    +0.000 A 
ATOM    123  CE3 TRP C   9     101.348  67.507  89.948  0.00  0.00    +0.000 A 
ATOM    124  CZ2 TRP C   9     101.214  69.134  87.640  0.00  0.00    +0.000 A 
ATOM    125  CZ3 TRP C   9     102.311  67.438  88.961  0.00  0.00    +0.000 A 
ATOM    126  CH2 TRP C   9     102.236  68.243  87.820  0.00  0.00    +0.000 A 
ATOM    127  N   ILE C  10      96.699  66.295  93.707  0.00  0.00    +0.000 N 
ATOM    128  H   ILE C  10      95.979  66.841  93.254  0.00  0.00    +0.000 HD
ATOM    129  CA  ILE C  10      96.485  65.781  95.055  0.00  0.00    +0.000 C 
ATOM    130  C   ILE C  10      95.914  64.365  95.067  0.00  0.00    +0.000 C 
ATOM    131  O   ILE C  10      96.456  63.499  95.771  0.00  0.00    +0.000 OA
ATOM    132  CB  ILE C  10      95.578  66.737  95.859  0.00  0.00    +0.000 C 
ATOM    133  CG1 ILE C  10      96.167  68.147  95.860  0.00  0.00    +0.000 C 
ATOM    134  CG2 ILE C  10      95.396  66.255  97.293  0.00  0.00    +0.000 C 
ATOM    135  CD1 ILE C  10      97.538  68.232  96.483  0.00  0.00    +0.000 C 
ATOM    136  N   TRP C  11      94.875  64.091  94.278  0.00  0.00    +0.000 N 
ATOM    137  H   TRP C  11      94.521  64.808  93.659  0.00  0.00    +0.000 HD
ATOM    138  CA  TRP C  11      94.210  62.792  94.265  0.00  0.00    +0.000 C 
ATOM    139  C   TRP C  11      95.009  61.668  93.621  0.00  0.00    +0.000 C 
ATOM    140  O   TRP C  11      94.600  60.508  93.762  0.00  0.00    +0.000 OA
ATOM    141  CB  TRP C  11      92.858  62.918  93.570  0.00  0.00    +0.000 C 
ATOM    142  CG  TRP C  11      91.905  63.726  94.361  0.00  0.00    +0.000 A 
ATOM    143  CD1 TRP C  11      91.624  65.048  94.216  0.00  0.00    +0.000 A 
ATOM    144  CD2 TRP C  11      91.046  63.242  95.397  0.00  0.00    +0.000 A 
ATOM    145  NE1 TRP C  11      90.666  65.431  95.124  0.00  0.00    +0.000 N 
ATOM    146  HE1 TRP C  11      90.286  66.361  95.213  0.00  0.00    +0.000 HD
ATOM    147  CE2 TRP C  11      90.292  64.338  95.859  0.00  0.00    +0.000 A 
ATOM    148  CE3 TRP C  11      90.854  61.990  95.991  0.00  0.00    +0.000 A 
ATOM    149  CZ2 TRP C  11      89.362  64.222  96.887  0.00  0.00    +0.000 A 
ATOM    150  CZ3 TRP C  11      89.929  61.874  97.010  0.00  0.00    +0.000 A 
ATOM    151  CH2 TRP C  11      89.193  62.984  97.448  0.00  0.00    +0.000 A 
ATOM    152  N   LYS C  12      96.125  61.996  92.937  0.00  0.00    +0.000 N 
ATOM    153  H   LYS C  12      96.330  62.983  92.906  0.00  0.00    +0.000 HD
ATOM    154  CA  LYS C  12      97.145  61.091  92.339  0.00  0.00    +0.000 C 
ATOM    155  C   LYS C  12      96.550  59.964  91.485  0.00  0.00    +0.000 C 
ATOM    156  O   LYS C  12      97.087  58.856  91.415  0.00  0.00    +0.000 OA
ATOM    157  CB  LYS C  12      98.140  60.554  93.394  0.00  0.00    +0.000 C 
ATOM    158  CG  LYS C  12      97.672  59.650  94.554  0.00  0.00    +0.000 C 
ATOM    159  CD  LYS C  12      98.782  59.459  95.572  0.00  0.00    +0.000 C 
ATOM    160  CE  LYS C  12      98.291  58.709  96.801  0.00  0.00    +0.000 C 
ATOM    161  NZ  LYS C  12      97.339  59.524  97.606  0.00  0.00    +0.000 N 
ATOM    162  HZ1 LYS C  12      96.518  59.726  97.043  0.00  0.00    +0.000 HD
ATOM    163  HZ2 LYS C  12      97.759  60.410  97.855  0.00  0.00    +0.000 HD
ATOM    164  HZ3 LYS C  12      97.044  59.033  98.439  0.00  0.00    +0.000 HD
ATOM    165  N   ASP C  13      95.453  60.265  90.791  0.00  0.00    +0.000 N 
ATOM    166  H   ASP C  13      95.041  61.174  90.911  0.00  0.00    +0.000 HD
ATOM    167  CA  ASP C  13      94.782  59.324  89.908  0.00  0.00    +0.000 C 
ATOM    168  C   ASP C  13      94.634  59.972  88.543  0.00  0.00    +0.000 C 
ATOM    169  O   ASP C  13      94.222  61.132  88.446  0.00  0.00    +0.000 OA
ATOM    170  CB  ASP C  13      93.414  58.921  90.459  0.00  0.00    +0.000 C 
ATOM    171  CG  ASP C  13      93.517  58.087  91.714  0.00  0.00    +0.000 C 
ATOM    172  OD1 ASP C  13      94.514  57.350  91.857  0.00  0.00    +0.000 OA
ATOM    173  OD2 ASP C  13      92.604  58.172  92.561  0.00  0.00    +0.000 OA
ATOM    174  N   SER C  14      94.972  59.226  87.496  0.00  0.00    +0.000 N 
ATOM    175  H   SER C  14      95.375  58.318  87.671  0.00  0.00    +0.000 HD
ATOM    176  CA  SER C  14      95.008  59.766  86.146  0.00  0.00    +0.000 C 
ATOM    177  C   SER C  14      94.059  59.075  85.183  0.00  0.00    +0.000 C 
ATOM    178  O   SER C  14      93.741  59.644  84.138  0.00  0.00    +0.000 OA
ATOM    179  CB  SER C  14      96.434  59.681  85.584  0.00  0.00    +0.000 C 
ATOM    180  OG  SER C  14      96.517  60.236  84.285  0.00  0.00    +0.000 OA
ATOM    181  HG  SER C  14      95.641  60.600  84.036  0.00  0.00    +0.000 HD
ATOM    182  N   ASP C  15      93.595  57.870  85.506  0.00  0.00    +0.000 N 
ATOM    183  H   ASP C  15      93.984  57.426  86.316  0.00  0.00    +0.000 HD
ATOM    184  CA  ASP C  15      92.835  57.052  84.571  0.00  0.00    +0.000 C 
ATOM    185  C   ASP C  15      91.454  56.689  85.102  0.00  0.00    +0.000 C 
ATOM    186  O   ASP C  15      90.494  56.623  84.331  0.00  0.00    +0.000 OA
ATOM    187  CB  ASP C  15      93.632  55.780  84.235  0.00  0.00    +0.000 C 
ATOM    188  CG  ASP C  15      94.715  56.018  83.190  0.00  0.00    +0.000 C 
ATOM    189  OD1 ASP C  15      95.325  55.029  82.732  0.00  0.00    +0.000 OA
ATOM    190  OD2 ASP C  15      94.947  57.183  82.810  0.00  0.00    +0.000 OA
ATOM    191  N   VAL C  16      91.326  56.448  86.407  0.00  0.00    +0.000 N 
ATOM    192  H   VAL C  16      92.147  56.463  86.990  0.00  0.00    +0.000 HD
ATOM    193  CA  VAL C  16      90.076  55.911  86.935  0.00  0.00    +0.000 C 
ATOM    194  C   VAL C  16      89.026  57.013  87.132  0.00  0.00    +0.000 C 
ATOM    195  O   VAL C  16      87.822  56.760  86.998  0.00  0.00    +0.000 OA
ATOM    196  CB  VAL C  16      90.374  55.102  88.220  0.00  0.00    +0.000 C 
ATOM    197  CG1 VAL C  16      90.920  55.977  89.356  0.00  0.00    +0.000 C 
ATOM    198  CG2 VAL C  16      89.166  54.272  88.678  0.00  0.00    +0.000 C 
ATOM    199  N   LEU C  17      89.441  58.256  87.377  0.00  0.00    +0.000 N 
ATOM    200  H   LEU C  17      90.426  58.419  87.503  0.00  0.00    +0.000 HD
ATOM    201  CA  LEU C  17      88.481  59.308  87.677  0.00  0.00    +0.000 C 
ATOM    202  C   LEU C  17      88.524  60.489  86.720  0.00  0.00    +0.000 C 
ATOM    203  O   LEU C  17      87.543  61.236  86.666  0.00  0.00    +0.000 OA
ATOM    204  CB  LEU C  17      88.660  59.793  89.126  0.00  0.00    +0.000 C 
ATOM    205  CG  LEU C  17      89.980  60.287  89.743  0.00  0.00    +0.000 C 
ATOM    206  CD1 LEU C  17      90.334  61.744  89.476  0.00  0.00    +0.000 C 
ATOM    207  CD2 LEU C  17      89.918  60.041  91.248  0.00  0.00    +0.000 C 
ATOM    208  N   PHE C  18      89.624  60.662  85.969  0.00  0.00    +0.000 N 
ATOM    209  H   PHE C  18      90.380  60.002  86.049  0.00  0.00    +0.000 HD
ATOM    210  CA  PHE C  18      89.786  61.801  85.059  0.00  0.00    +0.000 C 
ATOM    211  C   PHE C  18      88.775  61.803  83.922  0.00  0.00    +0.000 C 
ATOM    212  O   PHE C  18      88.271  62.871  83.553  0.00  0.00    +0.000 OA
ATOM    213  CB  PHE C  18      91.199  61.819  84.479  0.00  0.00    +0.000 C 
ATOM    214  CG  PHE C  18      91.459  62.975  83.554  0.00  0.00    +0.000 A 
ATOM    215  CD1 PHE C  18      91.662  64.252  84.060  0.00  0.00    +0.000 A 
ATOM    216  CD2 PHE C  18      91.529  62.779  82.175  0.00  0.00    +0.000 A 
ATOM    217  CE1 PHE C  18      91.907  65.322  83.210  0.00  0.00    +0.000 A 
ATOM    218  CE2 PHE C  18      91.772  63.839  81.320  0.00  0.00    +0.000 A 
ATOM    219  CZ  PHE C  18      91.966  65.113  81.839  0.00  0.00    +0.000 A 
ATOM    220  N   CYS C  19      88.455  60.627  83.375  0.00  0.00    +0.000 N 
ATOM    221  H   CYS C  19      88.932  59.794  83.684  0.00  0.00    +0.000 HD
ATOM    222  CA  CYS C  19      87.490  60.522  82.287  0.00  0.00    +0.000 C 
ATOM    223  C   CYS C  19      86.071  60.837  82.735  0.00  0.00    +0.000 C 
ATOM    224  O   CYS C  19      85.228  61.170  81.897  0.00  0.00    +0.000 OA
ATOM    225  CB  CYS C  19      87.527  59.117  81.692  0.00  0.00    +0.000 C 
ATOM    226  SG  CYS C  19      89.091  58.669  80.929  0.00  0.00    +0.000 S 
ATOM    227  N   NME C  20      85.790  60.734  84.031  0.00  0.00    +0.000 N 
ATOM    228  H   NME C  20      86.546  60.557  84.678  0.00  0.00    +0.000 HD
ATOM    229  C   NME C  20      84.500  61.107  84.586  0.00  0.00    +0.000 C 
TER 
REMARK  Name = /home/xianyang/aimnet2_score_pipelines/work/L1234-fixed-receptor-eint-20260921/L3/Q96LB1/prepared.pdb
REMARK                            x       y       z     vdW  Elec       q    Type
REMARK                         _______ _______ _______ _____ _____    ______ ____
ATOM      1  CH3 ACE B   1     101.607  81.776  79.963  0.00  0.00    +0.000 C 
ATOM      2  C   ACE B   1     102.784  81.298  80.786  0.00  0.00    +0.000 C 
ATOM      3  O   ACE B   1     103.603  80.528  80.285  0.00  0.00    +0.000 OA
ATOM      4  N   LEU B   2     102.878  81.674  82.063  0.00  0.00    +0.000 N 
ATOM      5  H   LEU B   2     102.225  82.329  82.464  0.00  0.00    +0.000 HD
ATOM      6  CA  LEU B   2     104.020  81.189  82.818  0.00  0.00    +0.000 C 
ATOM      7  C   LEU B   2     103.721  79.788  83.347  0.00  0.00    +0.000 C 
ATOM      8  O   LEU B   2     104.634  78.963  83.499  0.00  0.00    +0.000 OA
ATOM      9  CB  LEU B   2     104.365  82.193  83.919  0.00  0.00    +0.000 C 
ATOM     10  CG  LEU B   2     105.721  82.161  84.640  0.00  0.00    +0.000 C 
ATOM     11  CD1 LEU B   2     106.044  83.555  85.154  0.00  0.00    +0.000 C 
ATOM     12  CD2 LEU B   2     105.862  81.180  85.746  0.00  0.00    +0.000 C 
ATOM     13  N   GLU B   3     102.437  79.487  83.570  0.00  0.00    +0.000 N 
ATOM     14  H   GLU B   3     101.732  80.198  83.474  0.00  0.00    +0.000 HD
ATOM     15  CA  GLU B   3     102.010  78.111  83.803  0.00  0.00    +0.000 C 
ATOM     16  C   GLU B   3     102.222  77.240  82.569  0.00  0.00    +0.000 C 
ATOM     17  O   GLU B   3     102.653  76.091  82.690  0.00  0.00    +0.000 OA
ATOM     18  CB  GLU B   3     100.544  78.099  84.234  0.00  0.00    +0.000 C 
ATOM     19  CG  GLU B   3      99.967  76.737  84.554  0.00  0.00    +0.000 C 
ATOM     20  CD  GLU B   3      99.122  76.192  83.422  0.00  0.00    +0.000 C 
ATOM     21  OE1 GLU B   3      98.536  77.002  82.678  0.00  0.00    +0.000 OA
ATOM     22  OE2 GLU B   3      99.039  74.958  83.275  0.00  0.00    +0.000 OA
ATOM     23  N   GLY B   4     101.929  77.763  81.376  0.00  0.00    +0.000 N 
ATOM     24  H   GLY B   4     101.451  78.647  81.334  0.00  0.00    +0.000 HD
ATOM     25  CA  GLY B   4     102.195  77.018  80.155  0.00  0.00    +0.000 C 
ATOM     26  C   GLY B   4     103.669  76.858  79.837  0.00  0.00    +0.000 C 
ATOM     27  O   GLY B   4     104.064  75.841  79.257  0.00  0.00    +0.000 OA
ATOM     28  N   LYS B   5     104.485  77.843  80.206  0.00  0.00    +0.000 N 
ATOM     29  H   LYS B   5     104.074  78.698  80.563  0.00  0.00    +0.000 HD
ATOM     30  CA  LYS B   5     105.931  77.768  80.085  0.00  0.00    +0.000 C 
ATOM     31  C   LYS B   5     106.531  76.742  81.024  0.00  0.00    +0.000 C 
ATOM     32  O   LYS B   5     107.503  76.078  80.656  0.00  0.00    +0.000 OA
ATOM     33  CB  LYS B   5     106.552  79.144  80.366  0.00  0.00    +0.000 C 
ATOM     34  CG  LYS B   5     108.019  79.301  79.970  0.00  0.00    +0.000 C 
ATOM     35  CD  LYS B   5     108.947  79.322  81.168  0.00  0.00    +0.000 C 
ATOM     36  CE  LYS B   5     110.385  79.560  80.742  0.00  0.00    +0.000 C 
ATOM     37  NZ  LYS B   5     111.327  79.532  81.895  0.00  0.00    +0.000 N 
ATOM     38  HZ1 LYS B   5     111.110  80.269  82.550  0.00  0.00    +0.000 HD
ATOM     39  HZ2 LYS B   5     112.281  79.626  81.569  0.00  0.00    +0.000 HD
ATOM     40  HZ3 LYS B   5     111.238  78.641  82.371  0.00  0.00    +0.000 HD
ATOM     41  N   PHE B   6     105.997  76.600  82.231  0.00  0.00    +0.000 N 
ATOM     42  H   PHE B   6     105.229  77.188  82.532  0.00  0.00    +0.000 HD
ATOM     43  CA  PHE B   6     106.627  75.681  83.164  0.00  0.00    +0.000 C 
ATOM     44  C   PHE B   6     105.927  74.335  83.263  0.00  0.00    +0.000 C 
ATOM     45  O   PHE B   6     106.249  73.561  84.167  0.00  0.00    +0.000 OA
ATOM     46  CB  PHE B   6     106.714  76.322  84.544  0.00  0.00    +0.000 C 
ATOM     47  CG  PHE B   6     107.993  77.068  84.774  0.00  0.00    +0.000 A 
ATOM     48  CD1 PHE B   6     108.044  78.445  84.600  0.00  0.00    +0.000 A 
ATOM     49  CD2 PHE B   6     109.148  76.396  85.146  0.00  0.00    +0.000 A 
ATOM     50  CE1 PHE B   6     109.224  79.144  84.808  0.00  0.00    +0.000 A 
ATOM     51  CE2 PHE B   6     110.335  77.088  85.358  0.00  0.00    +0.000 A 
ATOM     52  CZ  PHE B   6     110.370  78.463  85.186  0.00  0.00    +0.000 A 
ATOM     53  N   CYS B   7     104.981  74.032  82.373  0.00  0.00    +0.000 N 
ATOM     54  H   CYS B   7     104.627  74.762  81.774  0.00  0.00    +0.000 HD
ATOM     55  CA  CYS B   7     104.350  72.717  82.336  0.00  0.00    +0.000 C 
ATOM     56  C   CYS B   7     104.397  72.061  80.965  0.00  0.00    +0.000 C 
ATOM     57  O   CYS B   7     103.879  70.952  80.810  0.00  0.00    +0.000 OA
ATOM     58  CB  CYS B   7     102.890  72.791  82.797  0.00  0.00    +0.000 C 
ATOM     59  SG  CYS B   7     102.629  73.362  84.486  0.00  0.00    +0.000 S 
ATOM     60  N   GLY B   8     104.990  72.706  79.969  0.00  0.00    +0.000 N 
ATOM     61  H   GLY B   8     105.503  73.561  80.147  0.00  0.00    +0.000 HD
ATOM     62  CA  GLY B   8     105.146  72.080  78.675  0.00  0.00    +0.000 C 
ATOM     63  C   GLY B   8     104.091  72.411  77.650  0.00  0.00    +0.000 C 
ATOM     64  O   GLY B   8     104.148  71.878  76.536  0.00  0.00    +0.000 OA
ATOM     65  N   PHE B   9     103.131  73.268  77.978  0.00  0.00    +0.000 N 
ATOM     66  H   PHE B   9     103.155  73.718  78.882  0.00  0.00    +0.000 HD
ATOM     67  CA  PHE B   9     102.152  73.672  76.983  0.00  0.00    +0.000 C 
ATOM     68  C   PHE B   9     102.661  74.800  76.098  0.00  0.00    +0.000 C 
ATOM     69  O   PHE B   9     102.046  75.087  75.067  0.00  0.00    +0.000 OA
ATOM     70  CB  PHE B   9     100.848  74.075  77.669  0.00  0.00    +0.000 C 
ATOM     71  CG  PHE B   9     100.032  72.905  78.134  0.00  0.00    +0.000 A 
ATOM     72  CD1 PHE B   9     100.165  72.425  79.430  0.00  0.00    +0.000 A 
ATOM     73  CD2 PHE B   9      99.146  72.274  77.270  0.00  0.00    +0.000 A 
ATOM     74  CE1 PHE B   9      99.421  71.343  79.861  0.00  0.00    +0.000 A 
ATOM     75  CE2 PHE B   9      98.393  71.189  77.693  0.00  0.00    +0.000 A 
ATOM     76  CZ  PHE B   9      98.533  70.724  78.991  0.00  0.00    +0.000 A 
ATOM     77  N   LEU B  10     103.765  75.436  76.466  0.00  0.00    +0.000 N 
ATOM     78  H   LEU B  10     104.201  75.209  77.354  0.00  0.00    +0.000 HD
ATOM     79  CA  LEU B  10     104.370  76.490  75.661  0.00  0.00    +0.000 C 
ATOM     80  C   LEU B  10     105.778  76.014  75.307  0.00  0.00    +0.000 C 
ATOM     81  O   LEU B  10     106.677  76.025  76.154  0.00  0.00    +0.000 OA
ATOM     82  CB  LEU B  10     104.331  77.824  76.410  0.00  0.00    +0.000 C 
ATOM     83  CG  LEU B  10     105.031  79.127  76.003  0.00  0.00    +0.000 C 
ATOM     84  CD1 LEU B  10     104.183  80.275  76.508  0.00  0.00    +0.000 C 
ATOM     85  CD2 LEU B  10     106.425  79.286  76.579  0.00  0.00    +0.000 C 
ATOM     86  N   PHE B  11     105.915  75.522  74.066  0.00  0.00    +0.000 N 
ATOM     87  H   PHE B  11     105.093  75.544  73.485  0.00  0.00    +0.000 HD
ATOM     88  CA  PHE B  11     107.177  75.103  73.430  0.00  0.00    +0.000 C 
ATOM     89  C   PHE B  11     107.875  73.962  74.175  0.00  0.00    +0.000 C 
ATOM     90  O   PHE B  11     109.102  73.935  74.285  0.00  0.00    +0.000 OA
ATOM     91  CB  PHE B  11     108.133  76.283  73.221  0.00  0.00    +0.000 C 
ATOM     92  CG  PHE B  11     107.480  77.497  72.621  0.00  0.00    +0.000 A 
ATOM     93  CD1 PHE B  11     106.687  77.389  71.483  0.00  0.00    +0.000 A 
ATOM     94  CD2 PHE B  11     107.685  78.752  73.179  0.00  0.00    +0.000 A 
ATOM     95  CE1 PHE B  11     106.086  78.509  70.931  0.00  0.00    +0.000 A 
ATOM     96  CE2 PHE B  11     107.091  79.877  72.631  0.00  0.00    +0.000 A 
ATOM     97  CZ  PHE B  11     106.293  79.754  71.506  0.00  0.00    +0.000 A 
ATOM     98  N   SER B  12     107.071  73.027  74.694  0.00  0.00    +0.000 N 
ATOM     99  H   SER B  12     106.091  73.254  74.735  0.00  0.00    +0.000 HD
ATOM    100  CA  SER B  12     107.432  71.632  75.010  0.00  0.00    +0.000 C 
ATOM    101  C   SER B  12     108.522  71.488  76.076  0.00  0.00    +0.000 C 
ATOM    102  O   SER B  12     109.240  70.485  76.098  0.00  0.00    +0.000 OA
ATOM    103  CB  SER B  12     107.837  70.857  73.746  0.00  0.00    +0.000 C 
ATOM    104  OG  SER B  12     109.093  71.263  73.229  0.00  0.00    +0.000 OA
ATOM    105  HG  SER B  12     109.347  72.098  73.670  0.00  0.00    +0.000 HD
ATOM    106  N   ASP B  13     108.671  72.453  76.974  0.00  0.00    +0.000 N 
ATOM    107  H   ASP B  13     108.271  73.382  76.831  0.00  0.00    +0.000 HD
ATOM    108  CA  ASP B  13     109.644  72.354  78.053  0.00  0.00    +0.000 C 
ATOM    109  C   ASP B  13     108.987  72.720  79.376  0.00  0.00    +0.000 C 
ATOM    110  O   ASP B  13     108.036  73.502  79.407  0.00  0.00    +0.000 OA
ATOM    111  CB  ASP B  13     110.852  73.265  77.805  0.00  0.00    +0.000 C 
ATOM    112  CG  ASP B  13     110.456  74.685  77.437  0.00  0.00    +0.000 C 
ATOM    113  OD1 ASP B  13     109.279  74.917  77.088  0.00  0.00    +0.000 OA
ATOM    114  OD2 ASP B  13     111.325  75.578  77.511  0.00  0.00    +0.000 OA
ATOM    115  N   GLY B  14     109.493  72.151  80.468  0.00  0.00    +0.000 N 
ATOM    116  H   GLY B  14     110.223  71.463  80.384  0.00  0.00    +0.000 HD
ATOM    117  CA  GLY B  14     109.012  72.528  81.783  0.00  0.00    +0.000 C 
ATOM    118  C   GLY B  14     109.153  71.440  82.824  0.00  0.00    +0.000 C 
ATOM    119  O   GLY B  14     108.986  70.256  82.521  0.00  0.00    +0.000 OA
ATOM    120  N   ASP B  15     109.430  71.829  84.064  0.00  0.00    +0.000 N 
ATOM    121  H   ASP B  15     109.387  72.808  84.292  0.00  0.00    +0.000 HD
ATOM    122  CA  ASP B  15     109.703  70.887  85.136  0.00  0.00    +0.000 C 
ATOM    123  C   ASP B  15     108.423  70.768  85.952  0.00  0.00    +0.000 C 
ATOM    124  O   ASP B  15     107.664  71.732  86.074  0.00  0.00    +0.000 OA
ATOM    125  CB  ASP B  15     110.935  71.373  85.961  0.00  0.00    +0.000 C 
ATOM    126  CG  ASP B  15     111.277  70.504  87.199  0.00  0.00    +0.000 C 
ATOM    127  OD1 ASP B  15     110.472  70.224  88.111  0.00  0.00    +0.000 OA
ATOM    128  OD2 ASP B  15     112.443  70.065  87.241  0.00  0.00    +0.000 OA
ATOM    129  N   SER B  16     108.196  69.576  86.512  0.00  0.00    +0.000 N 
ATOM    130  H   SER B  16     108.915  68.868  86.460  0.00  0.00    +0.000 HD
ATOM    131  CA  SER B  16     106.966  69.319  87.257  0.00  0.00    +0.000 C 
ATOM    132  C   SER B  16     106.983  69.989  88.627  0.00  0.00    +0.000 C 
ATOM    133  O   SER B  16     105.926  70.347  89.164  0.00  0.00    +0.000 OA
ATOM    134  CB  SER B  16     106.753  67.813  87.398  0.00  0.00    +0.000 C 
ATOM    135  OG  SER B  16     105.805  67.525  88.409  0.00  0.00    +0.000 OA
ATOM    136  HG  SER B  16     105.895  68.132  89.149  0.00  0.00    +0.000 HD
ATOM    137  N   GLY B  17     108.176  70.185  89.201  0.00  0.00    +0.000 N 
ATOM    138  H   GLY B  17     109.021  69.876  88.737  0.00  0.00    +0.000 HD
ATOM    139  CA  GLY B  17     108.274  70.744  90.542  0.00  0.00    +0.000 C 
ATOM    140  C   GLY B  17     107.991  72.232  90.604  0.00  0.00    +0.000 C 
ATOM    141  O   GLY B  17     107.761  72.779  91.686  0.00  0.00    +0.000 OA
ATOM    142  N   TRP B  18     108.026  72.909  89.460  0.00  0.00    +0.000 N 
ATOM    143  H   TRP B  18     108.336  72.426  88.627  0.00  0.00    +0.000 HD
ATOM    144  CA  TRP B  18     107.477  74.249  89.342  0.00  0.00    +0.000 C 
ATOM    145  C   TRP B  18     106.066  74.241  88.785  0.00  0.00    +0.000 C 
ATOM    146  O   TRP B  18     105.301  75.178  89.055  0.00  0.00    +0.000 OA
ATOM    147  CB  TRP B  18     108.374  75.101  88.447  0.00  0.00    +0.000 C 
ATOM    148  CG  TRP B  18     109.713  75.325  89.041  0.00  0.00    +0.000 A 
ATOM    149  CD1 TRP B  18     110.822  74.554  88.868  0.00  0.00    +0.000 A 
ATOM    150  CD2 TRP B  18     110.098  76.399  89.903  0.00  0.00    +0.000 A 
ATOM    151  NE1 TRP B  18     111.875  75.075  89.577  0.00  0.00    +0.000 N 
ATOM    152  HE1 TRP B  18     112.792  74.654  89.633  0.00  0.00    +0.000 HD
ATOM    153  CE2 TRP B  18     111.457  76.211  90.219  0.00  0.00    +0.000 A 
ATOM    154  CE3 TRP B  18     109.426  77.500  90.440  0.00  0.00    +0.000 A 
ATOM    155  CZ2 TRP B  18     112.157  77.084  91.047  0.00  0.00    +0.000 A 
ATOM    156  CZ3 TRP B  18     110.121  78.365  91.261  0.00  0.00    +0.000 A 
ATOM    157  CH2 TRP B  18     111.474  78.152  91.558  0.00  0.00    +0.000 A 
ATOM    158  N   CYS B  19     105.707  73.182  88.051  0.00  0.00    +0.000 N 
ATOM    159  H   CYS B  19     106.410  72.515  87.765  0.00  0.00    +0.000 HD
ATOM    160  CA  CYS B  19     104.390  73.084  87.435  0.00  0.00    +0.000 C 
ATOM    161  C   CYS B  19     103.297  72.906  88.479  0.00  0.00    +0.000 C 
ATOM    162  O   CYS B  19     102.284  73.612  88.435  0.00  0.00    +0.000 OA
ATOM    163  CB  CYS B  19     104.367  71.929  86.440  0.00  0.00    +0.000 C 
ATOM    164  SG  CYS B  19     102.798  71.687  85.609  0.00  0.00    +0.000 S 
ATOM    165  N   GLN B  20     103.497  72.003  89.448  0.00  0.00    +0.000 N 
ATOM    166  H   GLN B  20     104.293  71.377  89.403  0.00  0.00    +0.000 HD
ATOM    167  CA  GLN B  20     102.504  71.870  90.511  0.00  0.00    +0.000 C 
ATOM    168  C   GLN B  20     102.544  73.057  91.462  0.00  0.00    +0.000 C 
ATOM    169  O   GLN B  20     101.498  73.453  91.990  0.00  0.00    +0.000 OA
ATOM    170  CB  GLN B  20     102.675  70.566  91.299  0.00  0.00    +0.000 C 
ATOM    171  CG  GLN B  20     103.962  70.382  92.083  0.00  0.00    +0.000 C 
ATOM    172  CD  GLN B  20     103.934  69.143  92.944  0.00  0.00    +0.000 C 
ATOM    173  OE1 GLN B  20     102.941  68.418  92.973  0.00  0.00    +0.000 OA
ATOM    174  NE2 GLN B  20     105.015  68.905  93.675  0.00  0.00    +0.000 N 
ATOM    175 HE21 GLN B  20     104.980  68.090  94.261  0.00  0.00    +0.000 HD
ATOM    176 HE22 GLN B  20     105.787  69.545  93.677  0.00  0.00    +0.000 HD
ATOM    177  N   THR B  21     103.723  73.669  91.629  0.00  0.00    +0.000 N 
ATOM    178  H   THR B  21     104.537  73.270  91.189  0.00  0.00    +0.000 HD
ATOM    179  CA  THR B  21     103.910  74.815  92.503  0.00  0.00    +0.000 C 
ATOM    180  C   THR B  21     103.157  76.037  92.010  0.00  0.00    +0.000 C 
ATOM    181  O   THR B  21     102.586  76.771  92.824  0.00  0.00    +0.000 OA
ATOM    182  CB  THR B  21     105.406  75.114  92.628  0.00  0.00    +0.000 C 
ATOM    183  OG1 THR B  21     106.097  73.896  92.931  0.00  0.00    +0.000 OA
ATOM    184  HG1 THR B  21     106.863  73.710  92.341  0.00  0.00    +0.000 HD
ATOM    185  CG2 THR B  21     105.691  76.122  93.733  0.00  0.00    +0.000 C 
ATOM    186  N   PHE B  22     103.074  76.236  90.699  0.00  0.00    +0.000 N 
ATOM    187  H   PHE B  22     103.567  75.645  90.038  0.00  0.00    +0.000 HD
ATOM    188  CA  PHE B  22     102.319  77.392  90.233  0.00  0.00    +0.000 C 
ATOM    189  C   PHE B  22     100.932  77.032  89.717  0.00  0.00    +0.000 C 
ATOM    190  O   PHE B  22     100.101  77.936  89.566  0.00  0.00    +0.000 OA
ATOM    191  CB  PHE B  22     103.083  78.223  89.182  0.00  0.00    +0.000 C 
ATOM    192  CG  PHE B  22     104.307  79.009  89.708  0.00  0.00    +0.000 A 
ATOM    193  CD1 PHE B  22     104.773  80.061  88.951  0.00  0.00    +0.000 A 
ATOM    194  CD2 PHE B  22     104.956  78.755  90.926  0.00  0.00    +0.000 A 
ATOM    195  CE1 PHE B  22     105.864  80.827  89.361  0.00  0.00    +0.000 A 
ATOM    196  CE2 PHE B  22     106.045  79.508  91.343  0.00  0.00    +0.000 A 
ATOM    197  CZ  PHE B  22     106.497  80.546  90.558  0.00  0.00    +0.000 A 
ATOM    198  N   ASP B  23     100.630  75.740  89.524  0.00  0.00    +0.000 N 
ATOM    199  H   ASP B  23     101.348  75.032  89.434  0.00  0.00    +0.000 HD
ATOM    200  CA  ASP B  23      99.232  75.323  89.476  0.00  0.00    +0.000 C 
ATOM    201  C   ASP B  23      98.539  75.569  90.808  0.00  0.00    +0.000 C 
ATOM    202  O   ASP B  23      97.371  75.980  90.833  0.00  0.00    +0.000 OA
ATOM    203  CB  ASP B  23      99.116  73.846  89.105  0.00  0.00    +0.000 C 
ATOM    204  CG  ASP B  23      99.205  73.605  87.613  0.00  0.00    +0.000 C 
ATOM    205  OD1 ASP B  23      98.880  74.522  86.836  0.00  0.00    +0.000 OA
ATOM    206  OD2 ASP B  23      99.572  72.480  87.216  0.00  0.00    +0.000 OA
ATOM    207  N   PHE B  24      99.256  75.356  91.917  0.00  0.00    +0.000 N 
ATOM    208  H   PHE B  24     100.151  74.885  91.844  0.00  0.00    +0.000 HD
ATOM    209  CA  PHE B  24      98.728  75.694  93.233  0.00  0.00    +0.000 C 
ATOM    210  C   PHE B  24      98.568  77.198  93.414  0.00  0.00    +0.000 C 
ATOM    211  O   PHE B  24      97.628  77.634  94.081  0.00  0.00    +0.000 OA
ATOM    212  CB  PHE B  24      99.636  75.134  94.327  0.00  0.00    +0.000 C 
ATOM    213  CG  PHE B  24      99.565  73.638  94.484  0.00  0.00    +0.000 A 
ATOM    214  CD1 PHE B  24      98.509  72.904  93.954  0.00  0.00    +0.000 A 
ATOM    215  CD2 PHE B  24     100.563  72.968  95.178  0.00  0.00    +0.000 A 
ATOM    216  CE1 PHE B  24      98.458  71.531  94.101  0.00  0.00    +0.000 A 
ATOM    217  CE2 PHE B  24     100.516  71.594  95.334  0.00  0.00    +0.000 A 
ATOM    218  CZ  PHE B  24      99.462  70.877  94.794  0.00  0.00    +0.000 A 
ATOM    219  N   NME B  25      99.451  78.001  92.813  0.00  0.00    +0.000 N 
ATOM    220  H   NME B  25     100.174  77.585  92.245  0.00  0.00    +0.000 HD
ATOM    221  C   NME B  25      99.337  79.455  92.907  0.00  0.00    +0.000 C 
TER 
