REMARK  Name = /data/user_data/xianyang/t3-aimnet-affinity-balanced/L4/P50052/pocket.pdb
REMARK                            x       y       z     vdW  Elec       q    Type
REMARK                         _______ _______ _______ _____ _____    ______ ____
ATOM      1  N   ILE A   1      63.563   0.688  -5.657  0.00  0.00    +0.000 N 
ATOM      2  CA  ILE A   1      63.848   1.487  -4.453  0.00  0.00    +0.000 C 
ATOM      3  C   ILE A   1      63.834   0.575  -3.176  0.00  0.00    +0.000 C 
ATOM      4  O   ILE A   1      64.875   0.518  -2.534  0.00  0.00    +0.000 OA
ATOM      5  CB  ILE A   1      62.850   2.685  -4.310  0.00  0.00    +0.000 C 
ATOM      6  CG1 ILE A   1      63.067   3.743  -5.423  0.00  0.00    +0.000 C 
ATOM      7  CG2 ILE A   1      62.898   3.338  -2.920  0.00  0.00    +0.000 C 
ATOM      8  CD1 ILE A   1      64.472   4.433  -5.453  0.00  0.00    +0.000 C 
ATOM      9  H   ILE A   1      63.575   1.294  -6.478  0.00  0.00    +0.000 HD
ATOM     10  H   ILE A   1      62.644   0.255  -5.568  0.00  0.00    +0.000 HD
ATOM     11  H   ILE A   1      64.272  -0.038  -5.759  0.00  0.00    +0.000 HD
TER 
REMARK  Name = /data/user_data/xianyang/t3-aimnet-affinity-balanced/L4/P50052/pocket.pdb
REMARK                            x       y       z     vdW  Elec       q    Type
REMARK                         _______ _______ _______ _____ _____    ______ ____
ATOM      1  N   TYR B   1      67.458  -0.211  -1.204  0.00  0.00    +0.000 N 
ATOM      2  CA  TYR B   1      67.549   0.192   0.204  0.00  0.00    +0.000 C 
ATOM      3  C   TYR B   1      67.984  -0.994   1.099  0.00  0.00    +0.000 C 
ATOM      4  O   TYR B   1      68.752  -0.774   2.032  0.00  0.00    +0.000 OA
ATOM      5  CB  TYR B   1      66.203   0.767   0.689  0.00  0.00    +0.000 C 
ATOM      6  CG  TYR B   1      66.016   2.250   0.410  0.00  0.00    +0.000 A 
ATOM      7  CD1 TYR B   1      66.134   2.757  -0.881  0.00  0.00    +0.000 A 
ATOM      8  CD2 TYR B   1      65.554   3.110   1.401  0.00  0.00    +0.000 A 
ATOM      9  CE1 TYR B   1      65.943   4.109  -1.146  0.00  0.00    +0.000 A 
ATOM     10  CE2 TYR B   1      65.325   4.460   1.140  0.00  0.00    +0.000 A 
ATOM     11  CZ  TYR B   1      65.514   4.953  -0.139  0.00  0.00    +0.000 A 
ATOM     12  OH  TYR B   1      65.295   6.280  -0.404  0.00  0.00    +0.000 OA
ATOM     13  H   TYR B   1      67.170   0.588  -1.769  0.00  0.00    +0.000 HD
ATOM     14  H   TYR B   1      66.772  -0.960  -1.300  0.00  0.00    +0.000 HD
ATOM     15  H   TYR B   1      68.369  -0.542  -1.522  0.00  0.00    +0.000 HD
ATOM     16  H   TYR B   1      65.423   6.612  -1.271  0.00  0.00    +0.000 HD
TER 
REMARK  Name = /data/user_data/xianyang/t3-aimnet-affinity-balanced/L4/P50052/pocket.pdb
REMARK                            x       y       z     vdW  Elec       q    Type
REMARK                         _______ _______ _______ _____ _____    ______ ____
ATOM      1  N   LEU C   1      72.363   4.535  11.679  0.00  0.00    +0.000 N 
ATOM      2  CA  LEU C   1      71.736   5.258  10.561  0.00  0.00    +0.000 C 
ATOM      3  C   LEU C   1      71.220   4.268   9.514  0.00  0.00    +0.000 C 
ATOM      4  O   LEU C   1      70.081   4.388   9.065  0.00  0.00    +0.000 OA
ATOM      5  CB  LEU C   1      72.737   6.246   9.920  0.00  0.00    +0.000 C 
ATOM      6  CG  LEU C   1      72.239   7.097   8.739  0.00  0.00    +0.000 C 
ATOM      7  CD2 LEU C   1      71.167   8.081   9.178  0.00  0.00    +0.000 C 
ATOM      8  CD1 LEU C   1      73.381   7.867   8.116  0.00  0.00    +0.000 C 
ATOM      9  H   LEU C   1      71.687   3.889  12.088  0.00  0.00    +0.000 HD
ATOM     10  H   LEU C   1      72.667   5.203  12.388  0.00  0.00    +0.000 HD
ATOM     11  H   LEU C   1      73.169   4.012  11.336  0.00  0.00    +0.000 HD
TER 
REMARK  Name = /data/user_data/xianyang/t3-aimnet-affinity-balanced/L4/P50052/pocket.pdb
REMARK                            x       y       z     vdW  Elec       q    Type
REMARK                         _______ _______ _______ _____ _____    ______ ____
ATOM      1  N   LEU D   1      62.895   0.336   7.648  0.00  0.00    +0.000 N 
ATOM      2  CA  LEU D   1      61.685   1.125   7.893  0.00  0.00    +0.000 C 
ATOM      3  C   LEU D   1      61.266   1.925   6.669  0.00  0.00    +0.000 C 
ATOM      4  O   LEU D   1      60.088   1.907   6.323  0.00  0.00    +0.000 OA
ATOM      5  CB  LEU D   1      61.866   2.100   9.069  0.00  0.00    +0.000 C 
ATOM      6  CG  LEU D   1      62.059   1.528  10.459  0.00  0.00    +0.000 C 
ATOM      7  CD2 LEU D   1      62.402   2.622  11.433  0.00  0.00    +0.000 C 
ATOM      8  CD1 LEU D   1      60.819   0.786  10.936  0.00  0.00    +0.000 C 
ATOM      9  N   TRP D   2      62.209   2.652   6.032  0.00  0.00    +0.000 N 
ATOM     10  CA  TRP D   2      61.898   3.521   4.893  0.00  0.00    +0.000 C 
ATOM     11  C   TRP D   2      61.548   2.685   3.668  0.00  0.00    +0.000 C 
ATOM     12  O   TRP D   2      60.697   3.106   2.888  0.00  0.00    +0.000 OA
ATOM     13  CB  TRP D   2      63.054   4.495   4.562  0.00  0.00    +0.000 C 
ATOM     14  CG  TRP D   2      63.672   5.172   5.759  0.00  0.00    +0.000 C 
ATOM     15  CD1 TRP D   2      64.989   5.139   6.112  0.00  0.00    +0.000 C 
ATOM     16  CD2 TRP D   2      62.974   5.747   6.882  0.00  0.00    +0.000 C 
ATOM     17  NE1 TRP D   2      65.175   5.787   7.313  0.00  0.00    +0.000 NA
ATOM     18  CE2 TRP D   2      63.951   6.139   7.825  0.00  0.00    +0.000 C 
ATOM     19  CE3 TRP D   2      61.621   5.995   7.171  0.00  0.00    +0.000 C 
ATOM     20  CZ2 TRP D   2      63.620   6.773   9.029  0.00  0.00    +0.000 C 
ATOM     21  CZ3 TRP D   2      61.295   6.616   8.367  0.00  0.00    +0.000 C 
ATOM     22  CH2 TRP D   2      62.287   7.008   9.275  0.00  0.00    +0.000 C 
ATOM     23  N   ALA D   3      62.150   1.489   3.524  0.00  0.00    +0.000 N 
ATOM     24  CA  ALA D   3      61.826   0.575   2.427  0.00  0.00    +0.000 C 
ATOM     25  C   ALA D   3      60.404   0.026   2.586  0.00  0.00    +0.000 C 
ATOM     26  O   ALA D   3      59.682  -0.067   1.596  0.00  0.00    +0.000 OA
ATOM     27  CB  ALA D   3      62.831  -0.563   2.375  0.00  0.00    +0.000 C 
ATOM     28  H   LEU D   1      62.736  -0.296   6.864  0.00  0.00    +0.000 HD
ATOM     29  H   LEU D   1      63.122  -0.207   8.481  0.00  0.00    +0.000 HD
ATOM     30  H   LEU D   1      63.670   0.962   7.428  0.00  0.00    +0.000 HD
ATOM     31  H   TRP D   2      63.141   2.596   6.344  0.00  0.00    +0.000 HD
ATOM     32  H   ALA D   3      62.833   1.219   4.180  0.00  0.00    +0.000 HD
TER 
REMARK  Name = /data/user_data/xianyang/t3-aimnet-affinity-balanced/L4/P50052/pocket.pdb
REMARK                            x       y       z     vdW  Elec       q    Type
REMARK                         _______ _______ _______ _____ _____    ______ ____
ATOM      1  N   TYR E   1      57.920   1.532   4.503  0.00  0.00    +0.000 N 
ATOM      2  CA  TYR E   1      57.085   2.730   4.382  0.00  0.00    +0.000 C 
ATOM      3  C   TYR E   1      56.874   3.083   2.892  0.00  0.00    +0.000 C 
ATOM      4  O   TYR E   1      55.743   3.376   2.506  0.00  0.00    +0.000 OA
ATOM      5  CB  TYR E   1      57.739   3.898   5.156  0.00  0.00    +0.000 C 
ATOM      6  CG  TYR E   1      57.025   5.231   5.098  0.00  0.00    +0.000 A 
ATOM      7  CD2 TYR E   1      55.761   5.390   5.659  0.00  0.00    +0.000 A 
ATOM      8  CD1 TYR E   1      57.693   6.377   4.681  0.00  0.00    +0.000 A 
ATOM      9  CE2 TYR E   1      55.125   6.629   5.673  0.00  0.00    +0.000 A 
ATOM     10  CE1 TYR E   1      57.079   7.626   4.710  0.00  0.00    +0.000 A 
ATOM     11  CZ  TYR E   1      55.791   7.747   5.201  0.00  0.00    +0.000 A 
ATOM     12  OH  TYR E   1      55.186   8.975   5.229  0.00  0.00    +0.000 OA
ATOM     13  N   TYR E   2      57.935   2.972   2.053  0.00  0.00    +0.000 N 
ATOM     14  CA  TYR E   2      57.847   3.223   0.612  0.00  0.00    +0.000 C 
ATOM     15  C   TYR E   2      57.004   2.133  -0.074  0.00  0.00    +0.000 C 
ATOM     16  O   TYR E   2      56.227   2.459  -0.975  0.00  0.00    +0.000 OA
ATOM     17  CB  TYR E   2      59.250   3.295  -0.015  0.00  0.00    +0.000 C 
ATOM     18  CG  TYR E   2      59.266   3.646  -1.489  0.00  0.00    +0.000 A 
ATOM     19  CD2 TYR E   2      59.373   4.968  -1.909  0.00  0.00    +0.000 A 
ATOM     20  CD1 TYR E   2      59.240   2.654  -2.462  0.00  0.00    +0.000 A 
ATOM     21  CE2 TYR E   2      59.425   5.295  -3.264  0.00  0.00    +0.000 A 
ATOM     22  CE1 TYR E   2      59.271   2.970  -3.818  0.00  0.00    +0.000 A 
ATOM     23  CZ  TYR E   2      59.381   4.291  -4.215  0.00  0.00    +0.000 A 
ATOM     24  OH  TYR E   2      59.419   4.606  -5.551  0.00  0.00    +0.000 OA
ATOM     25  H   TYR E   1      57.487   0.763   3.992  0.00  0.00    +0.000 HD
ATOM     26  H   TYR E   1      58.010   1.278   5.487  0.00  0.00    +0.000 HD
ATOM     27  H   TYR E   1      58.844   1.721   4.114  0.00  0.00    +0.000 HD
ATOM     28  H   TYR E   1      55.641   9.729   4.908  0.00  0.00    +0.000 HD
ATOM     29  H   TYR E   2      58.806   2.710   2.431  0.00  0.00    +0.000 HD
ATOM     30  H   TYR E   2      59.389   3.925  -6.194  0.00  0.00    +0.000 HD
TER 
REMARK  Name = /data/user_data/xianyang/t3-aimnet-affinity-balanced/L4/P50052/pocket.pdb
REMARK                            x       y       z     vdW  Elec       q    Type
REMARK                         _______ _______ _______ _____ _____    ______ ____
ATOM      1  N   TYR F   1      53.669   4.958   1.176  0.00  0.00    +0.000 N 
ATOM      2  CA  TYR F   1      53.780   5.959   2.238  0.00  0.00    +0.000 C 
ATOM      3  C   TYR F   1      52.596   5.830   3.240  0.00  0.00    +0.000 C 
ATOM      4  O   TYR F   1      51.974   6.829   3.617  0.00  0.00    +0.000 OA
ATOM      5  CB  TYR F   1      53.872   7.383   1.658  0.00  0.00    +0.000 C 
ATOM      6  CG  TYR F   1      55.096   7.560   0.770  0.00  0.00    +0.000 A 
ATOM      7  CD2 TYR F   1      56.364   7.747   1.320  0.00  0.00    +0.000 A 
ATOM      8  CD1 TYR F   1      54.988   7.530  -0.615  0.00  0.00    +0.000 A 
ATOM      9  CE2 TYR F   1      57.495   7.881   0.512  0.00  0.00    +0.000 A 
ATOM     10  CE1 TYR F   1      56.110   7.681  -1.434  0.00  0.00    +0.000 A 
ATOM     11  CZ  TYR F   1      57.362   7.860  -0.866  0.00  0.00    +0.000 A 
ATOM     12  OH  TYR F   1      58.473   8.030  -1.665  0.00  0.00    +0.000 OA
ATOM     13  H   TYR F   1      54.453   5.059   0.531  0.00  0.00    +0.000 HD
ATOM     14  H   TYR F   1      52.793   5.094   0.671  0.00  0.00    +0.000 HD
ATOM     15  H   TYR F   1      53.684   4.024   1.586  0.00  0.00    +0.000 HD
ATOM     16  H   TYR F   1      58.386   8.016  -2.598  0.00  0.00    +0.000 HD
TER 
REMARK  Name = /data/user_data/xianyang/t3-aimnet-affinity-balanced/L4/P50052/pocket.pdb
REMARK                            x       y       z     vdW  Elec       q    Type
REMARK                         _______ _______ _______ _____ _____    ______ ____
ATOM      1  N   TRP G   1      52.304   4.805   6.934  0.00  0.00    +0.000 N 
ATOM      2  CA  TRP G   1      53.008   4.578   8.186  0.00  0.00    +0.000 C 
ATOM      3  C   TRP G   1      52.158   3.659   9.083  0.00  0.00    +0.000 C 
ATOM      4  O   TRP G   1      51.095   4.058   9.557  0.00  0.00    +0.000 OA
ATOM      5  CB  TRP G   1      53.328   5.922   8.866  0.00  0.00    +0.000 C 
ATOM      6  CG  TRP G   1      54.223   5.789  10.054  0.00  0.00    +0.000 C 
ATOM      7  CD1 TRP G   1      53.845   5.637  11.354  0.00  0.00    +0.000 C 
ATOM      8  CD2 TRP G   1      55.652   5.720  10.040  0.00  0.00    +0.000 A 
ATOM      9  NE1 TRP G   1      54.951   5.520  12.157  0.00  0.00    +0.000 NA
ATOM     10  CE2 TRP G   1      56.076   5.559  11.376  0.00  0.00    +0.000 A 
ATOM     11  CE3 TRP G   1      56.621   5.778   9.025  0.00  0.00    +0.000 A 
ATOM     12  CZ2 TRP G   1      57.425   5.456  11.725  0.00  0.00    +0.000 A 
ATOM     13  CZ3 TRP G   1      57.955   5.692   9.372  0.00  0.00    +0.000 A 
ATOM     14  CH2 TRP G   1      58.347   5.538  10.708  0.00  0.00    +0.000 A 
ATOM     15  H   TRP G   1      52.862   5.413   6.335  0.00  0.00    +0.000 HD
ATOM     16  H   TRP G   1      51.405   5.248   7.125  0.00  0.00    +0.000 HD
ATOM     17  H   TRP G   1      52.151   3.913   6.464  0.00  0.00    +0.000 HD
TER 
REMARK  Name = /data/user_data/xianyang/t3-aimnet-affinity-balanced/L4/P50052/pocket.pdb
REMARK                            x       y       z     vdW  Elec       q    Type
REMARK                         _______ _______ _______ _____ _____    ______ ____
ATOM      1  N   CYS H   1      56.862   7.726  14.555  0.00  0.00    +0.000 N 
ATOM      2  CA  CYS H   1      57.068   8.706  13.483  0.00  0.00    +0.000 C 
ATOM      3  C   CYS H   1      58.010   9.804  14.002  0.00  0.00    +0.000 C 
ATOM      4  O   CYS H   1      58.948  10.182  13.297  0.00  0.00    +0.000 OA
ATOM      5  CB  CYS H   1      55.734   9.267  12.995  0.00  0.00    +0.000 C 
ATOM      6  SG  CYS H   1      55.867  10.607  11.774  0.00  0.00    +0.000 S 
ATOM      7  N   CYS H   1      53.686   9.751   7.566  0.00  0.00    +0.000 N 
ATOM      8  CA  CYS H   1      54.579  10.324   8.576  0.00  0.00    +0.000 C 
ATOM      9  C   CYS H   1      55.207  11.575   7.971  0.00  0.00    +0.000 C 
ATOM     10  O   CYS H   1      56.287  11.506   7.379  0.00  0.00    +0.000 OA
ATOM     11  CB  CYS H   1      55.616   9.286   9.017  0.00  0.00    +0.000 C 
ATOM     12  SG  CYS H   1      56.879   9.895  10.170  0.00  0.00    +0.000 S 
ATOM     13  H   CYS H   1      56.238   6.989  14.227  0.00  0.00    +0.000 HD
ATOM     14  H   CYS H   1      56.446   8.189  15.363  0.00  0.00    +0.000 HD
ATOM     15  H   CYS H   1      57.759   7.319  14.820  0.00  0.00    +0.000 HD
ATOM     16  H   CYS H   1      53.001  10.451   7.281  0.00  0.00    +0.000 HD
ATOM     17  H   CYS H   1      53.203   8.943   7.958  0.00  0.00    +0.000 HD
ATOM     18  H   CYS H   1      54.232   9.460   6.755  0.00  0.00    +0.000 HD
TER 
REMARK  Name = /data/user_data/xianyang/t3-aimnet-affinity-balanced/L4/P50052/pocket.pdb
REMARK                            x       y       z     vdW  Elec       q    Type
REMARK                         _______ _______ _______ _____ _____    ______ ____
ATOM      1  N   PHE I   1      61.690   7.485  15.489  0.00  0.00    +0.000 N 
ATOM      2  CA  PHE I   1      62.612   7.050  14.428  0.00  0.00    +0.000 C 
ATOM      3  C   PHE I   1      62.935   8.196  13.463  0.00  0.00    +0.000 C 
ATOM      4  O   PHE I   1      64.029   8.204  12.898  0.00  0.00    +0.000 OA
ATOM      5  CB  PHE I   1      62.088   5.849  13.642  0.00  0.00    +0.000 C 
ATOM      6  CG  PHE I   1      62.063   4.591  14.476  0.00  0.00    +0.000 A 
ATOM      7  CD1 PHE I   1      63.238   3.918  14.785  0.00  0.00    +0.000 A 
ATOM      8  CD2 PHE I   1      60.862   4.044  14.902  0.00  0.00    +0.000 A 
ATOM      9  CE1 PHE I   1      63.219   2.765  15.571  0.00  0.00    +0.000 A 
ATOM     10  CE2 PHE I   1      60.842   2.876  15.672  0.00  0.00    +0.000 A 
ATOM     11  CZ  PHE I   1      62.023   2.242  15.998  0.00  0.00    +0.000 A 
ATOM     12  N   GLY I   2      62.032   9.166  13.336  0.00  0.00    +0.000 N 
ATOM     13  CA  GLY I   2      62.271  10.360  12.535  0.00  0.00    +0.000 C 
ATOM     14  C   GLY I   2      63.440  11.148  13.098  0.00  0.00    +0.000 C 
ATOM     15  O   GLY I   2      64.325  11.576  12.353  0.00  0.00    +0.000 OA
ATOM     16  H   PHE I   1      62.089   8.286  15.979  0.00  0.00    +0.000 HD
ATOM     17  H   PHE I   1      61.546   6.720  16.149  0.00  0.00    +0.000 HD
ATOM     18  H   PHE I   1      60.796   7.750  15.075  0.00  0.00    +0.000 HD
ATOM     19  H   GLY I   2      61.169   9.073  13.801  0.00  0.00    +0.000 HD
TER 
REMARK  Name = /data/user_data/xianyang/t3-aimnet-affinity-balanced/L4/P50052/pocket.pdb
REMARK                            x       y       z     vdW  Elec       q    Type
REMARK                         _______ _______ _______ _____ _____    ______ ____
ATOM      1  N   LEU J   1      66.843   9.010  13.073  0.00  0.00    +0.000 N 
ATOM      2  CA  LEU J   1      67.424   9.114  11.739  0.00  0.00    +0.000 C 
ATOM      3  C   LEU J   1      68.303  10.353  11.631  0.00  0.00    +0.000 C 
ATOM      4  O   LEU J   1      69.458  10.246  11.221  0.00  0.00    +0.000 OA
ATOM      5  CB  LEU J   1      66.297   9.166  10.686  0.00  0.00    +0.000 C 
ATOM      6  CG  LEU J   1      66.669   9.583   9.261  0.00  0.00    +0.000 C 
ATOM      7  CD2 LEU J   1      67.517   8.526   8.564  0.00  0.00    +0.000 C 
ATOM      8  CD1 LEU J   1      65.430   9.870   8.464  0.00  0.00    +0.000 C 
ATOM      9  N   THR J   2      67.755  11.521  12.011  0.00  0.00    +0.000 N 
ATOM     10  CA  THR J   2      68.406  12.822  11.917  0.00  0.00    +0.000 C 
ATOM     11  C   THR J   2      69.564  12.904  12.927  0.00  0.00    +0.000 C 
ATOM     12  O   THR J   2      70.615  13.455  12.600  0.00  0.00    +0.000 OA
ATOM     13  CB  THR J   2      67.364  13.913  12.150  0.00  0.00    +0.000 C 
ATOM     14  OG1 THR J   2      66.251  13.661  11.297  0.00  0.00    +0.000 OA
ATOM     15  CG2 THR J   2      67.898  15.299  11.879  0.00  0.00    +0.000 C 
ATOM     16  H   LEU J   1      66.259   8.176  13.125  0.00  0.00    +0.000 HD
ATOM     17  H   LEU J   1      66.274   9.836  13.261  0.00  0.00    +0.000 HD
ATOM     18  H   LEU J   1      67.590   8.946  13.765  0.00  0.00    +0.000 HD
ATOM     19  H   THR J   2      66.843  11.495  12.381  0.00  0.00    +0.000 HD
ATOM     20  H   THR J   2      66.539  13.694  10.371  0.00  0.00    +0.000 HD
TER 
REMARK  Name = /data/user_data/xianyang/t3-aimnet-affinity-balanced/L4/P50052/pocket.pdb
REMARK                            x       y       z     vdW  Elec       q    Type
REMARK                         _______ _______ _______ _____ _____    ______ ____
ATOM      1  N   MET K   1      72.354  10.755  11.581  0.00  0.00    +0.000 N 
ATOM      2  CA  MET K   1      72.808  11.337  10.311  0.00  0.00    +0.000 C 
ATOM      3  C   MET K   1      73.807  12.455  10.585  0.00  0.00    +0.000 C 
ATOM      4  O   MET K   1      74.886  12.468   9.994  0.00  0.00    +0.000 OA
ATOM      5  CB  MET K   1      71.646  11.865   9.461  0.00  0.00    +0.000 C 
ATOM      6  CG  MET K   1      72.121  12.472   8.149  0.00  0.00    +0.000 C 
ATOM      7  SD  MET K   1      70.902  13.458   7.264  0.00  0.00    +0.000 S 
ATOM      8  CE  MET K   1      70.699  14.816   8.380  0.00  0.00    +0.000 C 
ATOM      9  N   PHE K   2      73.443  13.389  11.495  0.00  0.00    +0.000 N 
ATOM     10  CA  PHE K   2      74.313  14.491  11.879  0.00  0.00    +0.000 C 
ATOM     11  C   PHE K   2      75.493  13.981  12.698  0.00  0.00    +0.000 C 
ATOM     12  O   PHE K   2      76.593  14.491  12.513  0.00  0.00    +0.000 OA
ATOM     13  CB  PHE K   2      73.567  15.584  12.650  0.00  0.00    +0.000 C 
ATOM     14  CG  PHE K   2      72.749  16.482  11.757  0.00  0.00    +0.000 A 
ATOM     15  CD1 PHE K   2      73.369  17.400  10.910  0.00  0.00    +0.000 A 
ATOM     16  CD2 PHE K   2      71.368  16.497  11.841  0.00  0.00    +0.000 A 
ATOM     17  CE1 PHE K   2      72.617  18.240  10.093  0.00  0.00    +0.000 A 
ATOM     18  CE2 PHE K   2      70.618  17.362  11.047  0.00  0.00    +0.000 A 
ATOM     19  CZ  PHE K   2      71.247  18.224  10.176  0.00  0.00    +0.000 A 
ATOM     20  H   MET K   1      71.686  10.008  11.393  0.00  0.00    +0.000 HD
ATOM     21  H   MET K   1      71.906  11.477  12.145  0.00  0.00    +0.000 HD
ATOM     22  H   MET K   1      73.155  10.376  12.087  0.00  0.00    +0.000 HD
ATOM     23  H   PHE K   2      72.555  13.320  11.914  0.00  0.00    +0.000 HD
TER 
REMARK  Name = /data/user_data/xianyang/t3-aimnet-affinity-balanced/L4/P50052/pocket.pdb
REMARK                            x       y       z     vdW  Elec       q    Type
REMARK                         _______ _______ _______ _____ _____    ______ ____
ATOM      1  N   SER L   1      70.195  19.466  16.702  0.00  0.00    +0.000 N 
ATOM      2  CA  SER L   1      69.905  19.654  15.277  0.00  0.00    +0.000 C 
ATOM      3  C   SER L   1      68.731  18.785  14.828  0.00  0.00    +0.000 C 
ATOM      4  O   SER L   1      68.127  19.060  13.787  0.00  0.00    +0.000 OA
ATOM      5  CB  SER L   1      71.134  19.323  14.440  0.00  0.00    +0.000 C 
ATOM      6  OG  SER L   1      72.232  20.152  14.780  0.00  0.00    +0.000 OA
ATOM      7  N   SER L   2      68.419  17.732  15.613  0.00  0.00    +0.000 N 
ATOM      8  CA  SER L   2      67.350  16.779  15.329  0.00  0.00    +0.000 C 
ATOM      9  C   SER L   2      66.056  17.114  16.111  0.00  0.00    +0.000 C 
ATOM     10  O   SER L   2      65.068  16.388  15.963  0.00  0.00    +0.000 OA
ATOM     11  CB  SER L   2      67.801  15.359  15.663  0.00  0.00    +0.000 C 
ATOM     12  OG  SER L   2      68.100  15.221  17.041  0.00  0.00    +0.000 OA
ATOM     13  H   SER L   1      70.981  20.058  16.970  0.00  0.00    +0.000 HD
ATOM     14  H   SER L   1      70.431  18.489  16.875  0.00  0.00    +0.000 HD
ATOM     15  H   SER L   1      69.375  19.720  17.252  0.00  0.00    +0.000 HD
ATOM     16  H   SER L   1      72.464  20.015  15.712  0.00  0.00    +0.000 HD
ATOM     17  H   SER L   2      68.948  17.598  16.432  0.00  0.00    +0.000 HD
ATOM     18  H   SER L   2      68.823  15.823  17.277  0.00  0.00    +0.000 HD
TER 
REMARK  Name = /data/user_data/xianyang/t3-aimnet-affinity-balanced/L4/P50052/pocket.pdb
REMARK                            x       y       z     vdW  Elec       q    Type
REMARK                         _______ _______ _______ _____ _____    ______ ____
ATOM      1  N   PRO M   1      63.974  19.949  15.648  0.00  0.00    +0.000 N 
ATOM      2  CA  PRO M   1      62.852  20.336  14.762  0.00  0.00    +0.000 C 
ATOM      3  C   PRO M   1      62.139  19.114  14.149  0.00  0.00    +0.000 C 
ATOM      4  O   PRO M   1      60.944  19.188  13.886  0.00  0.00    +0.000 OA
ATOM      5  CB  PRO M   1      63.531  21.175  13.675  0.00  0.00    +0.000 C 
ATOM      6  CG  PRO M   1      64.787  21.671  14.307  0.00  0.00    +0.000 C 
ATOM      7  CD  PRO M   1      65.244  20.549  15.180  0.00  0.00    +0.000 C 
ATOM      8  N   THR M   2      62.862  17.983  13.966  0.00  0.00    +0.000 N 
ATOM      9  CA  THR M   2      62.301  16.730  13.454  0.00  0.00    +0.000 C 
ATOM     10  C   THR M   2      61.342  16.148  14.478  0.00  0.00    +0.000 C 
ATOM     11  O   THR M   2      60.225  15.793  14.129  0.00  0.00    +0.000 OA
ATOM     12  CB  THR M   2      63.412  15.734  13.111  0.00  0.00    +0.000 C 
ATOM     13  OG1 THR M   2      64.381  16.350  12.272  0.00  0.00    +0.000 OA
ATOM     14  CG2 THR M   2      62.886  14.484  12.469  0.00  0.00    +0.000 C 
ATOM     15  H   PRO M   1      64.064  18.933  15.649  0.00  0.00    +0.000 HD
ATOM     16  H   PRO M   1      63.779  20.289  16.590  0.00  0.00    +0.000 HD
ATOM     17  H   THR M   2      63.820  18.004  14.190  0.00  0.00    +0.000 HD
ATOM     18  H   THR M   2      63.965  16.614  11.437  0.00  0.00    +0.000 HD
TER 
REMARK  Name = /data/user_data/xianyang/t3-aimnet-affinity-balanced/L4/P50052/pocket.pdb
REMARK                            x       y       z     vdW  Elec       q    Type
REMARK                         _______ _______ _______ _____ _____    ______ ____
ATOM      1  N   ARG N   1      57.689  16.225  13.036  0.00  0.00    +0.000 N 
ATOM      2  CA  ARG N   1      57.327  14.909  12.451  0.00  0.00    +0.000 C 
ATOM      3  C   ARG N   1      56.119  14.303  13.169  0.00  0.00    +0.000 C 
ATOM      4  O   ARG N   1      56.145  14.153  14.391  0.00  0.00    +0.000 OA
ATOM      5  CB  ARG N   1      58.488  13.889  12.470  0.00  0.00    +0.000 C 
ATOM      6  CG  ARG N   1      59.494  14.026  11.330  0.00  0.00    +0.000 C 
ATOM      7  CD  ARG N   1      58.895  13.623   9.999  0.00  0.00    +0.000 C 
ATOM      8  NE  ARG N   1      59.822  13.838   8.896  0.00  0.00    +0.000 N 
ATOM      9  CZ  ARG N   1      59.487  13.710   7.619  0.00  0.00    +0.000 C 
ATOM     10  NH2 ARG N   1      58.245  13.398   7.280  0.00  0.00    +0.000 N 
ATOM     11  NH1 ARG N   1      60.379  13.936   6.669  0.00  0.00    +0.000 N 
ATOM     12  H   ARG N   1      58.495  16.607  12.541  0.00  0.00    +0.000 HD
ATOM     13  H   ARG N   1      57.920  16.107  14.022  0.00  0.00    +0.000 HD
ATOM     14  H   ARG N   1      56.900  16.865  12.946  0.00  0.00    +0.000 HD
ATOM     15  H   ARG N   1      60.749  14.092   9.110  0.00  0.00    +0.000 HD
ATOM     16  H   ARG N   1      58.003  13.304   6.330  0.00  0.00    +0.000 HD
ATOM     17  H   ARG N   1      57.564  13.260   7.978  0.00  0.00    +0.000 HD
ATOM     18  H   ARG N   1      60.125  13.840   5.723  0.00  0.00    +0.000 HD
ATOM     19  H   ARG N   1      61.297  14.201   6.908  0.00  0.00    +0.000 HD
TER 
REMARK  Name = /data/user_data/xianyang/t3-aimnet-affinity-balanced/L4/P50052/pocket.pdb
REMARK                            x       y       z     vdW  Elec       q    Type
REMARK                         _______ _______ _______ _____ _____    ______ ____
ATOM      1  N   MET O   1      55.923  16.077   7.860  0.00  0.00    +0.000 N 
ATOM      2  CA  MET O   1      56.478  17.182   8.617  0.00  0.00    +0.000 C 
ATOM      3  C   MET O   1      55.322  18.131   8.883  0.00  0.00    +0.000 C 
ATOM      4  O   MET O   1      55.023  19.000   8.056  0.00  0.00    +0.000 OA
ATOM      5  CB  MET O   1      57.646  17.810   7.819  0.00  0.00    +0.000 C 
ATOM      6  CG  MET O   1      58.682  18.485   8.668  0.00  0.00    +0.000 C 
ATOM      7  SD  MET O   1      59.685  17.337   9.636  0.00  0.00    +0.000 S 
ATOM      8  CE  MET O   1      60.690  18.489  10.515  0.00  0.00    +0.000 C 
ATOM      9  H   MET O   1      56.660  15.403   7.652  0.00  0.00    +0.000 HD
ATOM     10  H   MET O   1      55.526  16.427   6.988  0.00  0.00    +0.000 HD
ATOM     11  H   MET O   1      55.192  15.623   8.408  0.00  0.00    +0.000 HD
TER 
REMARK  Name = /data/user_data/xianyang/t3-aimnet-affinity-balanced/L4/P50052/pocket.pdb
REMARK                            x       y       z     vdW  Elec       q    Type
REMARK                         _______ _______ _______ _____ _____    ______ ____
ATOM      1  N   ILE P   1      63.277  25.119   6.747  0.00  0.00    +0.000 N 
ATOM      2  CA  ILE P   1      63.875  23.864   7.220  0.00  0.00    +0.000 C 
ATOM      3  C   ILE P   1      64.738  23.263   6.089  0.00  0.00    +0.000 C 
ATOM      4  O   ILE P   1      65.772  22.679   6.399  0.00  0.00    +0.000 OA
ATOM      5  CB  ILE P   1      62.801  22.859   7.738  0.00  0.00    +0.000 C 
ATOM      6  CG1 ILE P   1      62.063  23.419   8.993  0.00  0.00    +0.000 C 
ATOM      7  CG2 ILE P   1      63.387  21.484   8.048  0.00  0.00    +0.000 C 
ATOM      8  CD1 ILE P   1      62.927  23.733  10.301  0.00  0.00    +0.000 C 
ATOM      9  H   ILE P   1      64.013  25.744   6.419  0.00  0.00    +0.000 HD
ATOM     10  H   ILE P   1      62.770  25.564   7.512  0.00  0.00    +0.000 HD
ATOM     11  H   ILE P   1      62.633  24.921   5.982  0.00  0.00    +0.000 HD
TER 
REMARK  Name = /data/user_data/xianyang/t3-aimnet-affinity-balanced/L4/P50052/pocket.pdb
REMARK                            x       y       z     vdW  Elec       q    Type
REMARK                         _______ _______ _______ _____ _____    ______ ____
ATOM      1  N   MET Q   1      68.070  24.914   6.284  0.00  0.00    +0.000 N 
ATOM      2  CA  MET Q   1      68.778  24.382   7.457  0.00  0.00    +0.000 C 
ATOM      3  C   MET Q   1      69.505  23.076   7.094  0.00  0.00    +0.000 C 
ATOM      4  O   MET Q   1      70.631  22.871   7.539  0.00  0.00    +0.000 OA
ATOM      5  CB  MET Q   1      67.803  24.155   8.624  0.00  0.00    +0.000 C 
ATOM      6  CG  MET Q   1      68.445  23.559   9.864  0.00  0.00    +0.000 C 
ATOM      7  SD  MET Q   1      67.227  23.301  11.157  0.00  0.00    +0.000 S 
ATOM      8  CE  MET Q   1      68.212  22.551  12.381  0.00  0.00    +0.000 C 
ATOM      9  N   LYS Q   2      68.868  22.212   6.274  0.00  0.00    +0.000 N 
ATOM     10  CA  LYS Q   2      69.449  20.954   5.786  0.00  0.00    +0.000 C 
ATOM     11  C   LYS Q   2      70.741  21.221   4.995  0.00  0.00    +0.000 C 
ATOM     12  O   LYS Q   2      71.740  20.545   5.225  0.00  0.00    +0.000 OA
ATOM     13  CB  LYS Q   2      68.445  20.185   4.903  0.00  0.00    +0.000 C 
ATOM     14  CG  LYS Q   2      67.133  19.823   5.586  0.00  0.00    +0.000 C 
ATOM     15  CD  LYS Q   2      66.171  19.141   4.626  0.00  0.00    +0.000 C 
ATOM     16  CE  LYS Q   2      64.878  18.775   5.291  0.00  0.00    +0.000 C 
ATOM     17  NZ  LYS Q   2      63.984  18.039   4.369  0.00  0.00    +0.000 N 
ATOM     18  H   MET Q   1      68.733  25.057   5.523  0.00  0.00    +0.000 HD
ATOM     19  H   MET Q   1      67.632  25.803   6.525  0.00  0.00    +0.000 HD
ATOM     20  H   MET Q   1      67.353  24.251   5.990  0.00  0.00    +0.000 HD
ATOM     21  H   LYS Q   2      67.955  22.440   5.985  0.00  0.00    +0.000 HD
ATOM     22  H   LYS Q   2      64.437  17.174   4.074  0.00  0.00    +0.000 HD
ATOM     23  H   LYS Q   2      63.789  18.616   3.551  0.00  0.00    +0.000 HD
ATOM     24  H   LYS Q   2      63.110  17.820   4.846  0.00  0.00    +0.000 HD
TER 
REMARK  Name = /data/user_data/xianyang/t3-aimnet-affinity-balanced/L4/P50052/pocket.pdb
REMARK                            x       y       z     vdW  Elec       q    Type
REMARK                         _______ _______ _______ _____ _____    ______ ____
ATOM      1  N   LEU R   1      73.569  23.443   7.560  0.00  0.00    +0.000 N 
ATOM      2  CA  LEU R   1      74.018  22.658   8.707  0.00  0.00    +0.000 C 
ATOM      3  C   LEU R   1      74.512  21.239   8.312  0.00  0.00    +0.000 C 
ATOM      4  O   LEU R   1      75.422  20.723   8.955  0.00  0.00    +0.000 OA
ATOM      5  CB  LEU R   1      72.836  22.544   9.690  0.00  0.00    +0.000 C 
ATOM      6  CG  LEU R   1      73.098  22.027  11.092  0.00  0.00    +0.000 C 
ATOM      7  CD1 LEU R   1      74.106  22.912  11.840  0.00  0.00    +0.000 C 
ATOM      8  CD2 LEU R   1      71.821  21.988  11.872  0.00  0.00    +0.000 C 
ATOM      9  H   LEU R   1      74.333  23.535   6.891  0.00  0.00    +0.000 HD
ATOM     10  H   LEU R   1      73.279  24.369   7.874  0.00  0.00    +0.000 HD
ATOM     11  H   LEU R   1      72.781  22.973   7.114  0.00  0.00    +0.000 HD
TER 
REMARK  Name = /data/user_data/xianyang/t3-aimnet-affinity-balanced/L4/P50052/pocket.pdb
REMARK                            x       y       z     vdW  Elec       q    Type
REMARK                         _______ _______ _______ _____ _____    ______ ____
ATOM      1  N   TRP S   1      76.545  13.245  -0.922  0.00  0.00    +0.000 N 
ATOM      2  CA  TRP S   1      75.545  14.169  -0.368  0.00  0.00    +0.000 C 
ATOM      3  C   TRP S   1      75.161  15.353  -1.302  0.00  0.00    +0.000 C 
ATOM      4  O   TRP S   1      74.084  15.901  -1.096  0.00  0.00    +0.000 OA
ATOM      5  CB  TRP S   1      76.028  14.768   0.956  0.00  0.00    +0.000 C 
ATOM      6  CG  TRP S   1      75.977  13.792   2.095  0.00  0.00    +0.000 C 
ATOM      7  CD1 TRP S   1      77.018  13.088   2.621  0.00  0.00    +0.000 C 
ATOM      8  CD2 TRP S   1      74.793  13.321   2.763  0.00  0.00    +0.000 C 
ATOM      9  NE1 TRP S   1      76.569  12.265   3.631  0.00  0.00    +0.000 NA
ATOM     10  CE2 TRP S   1      75.204  12.379   3.728  0.00  0.00    +0.000 C 
ATOM     11  CE3 TRP S   1      73.422  13.622   2.653  0.00  0.00    +0.000 C 
ATOM     12  CZ2 TRP S   1      74.297  11.743   4.584  0.00  0.00    +0.000 C 
ATOM     13  CZ3 TRP S   1      72.525  12.989   3.499  0.00  0.00    +0.000 C 
ATOM     14  CH2 TRP S   1      72.963  12.066   4.453  0.00  0.00    +0.000 C 
ATOM     15  H   TRP S   1      76.201  12.860  -1.802  0.00  0.00    +0.000 HD
ATOM     16  H   TRP S   1      76.711  12.487  -0.260  0.00  0.00    +0.000 HD
ATOM     17  H   TRP S   1      77.417  13.747  -1.088  0.00  0.00    +0.000 HD
TER 
REMARK  Name = /data/user_data/xianyang/t3-aimnet-affinity-balanced/L4/P50052/pocket.pdb
REMARK                            x       y       z     vdW  Elec       q    Type
REMARK                         _______ _______ _______ _____ _____    ______ ____
ATOM      1  N   PHE T   1      71.511  15.107  -3.083  0.00  0.00    +0.000 N 
ATOM      2  CA  PHE T   1      70.415  15.344  -2.149  0.00  0.00    +0.000 C 
ATOM      3  C   PHE T   1      70.220  16.845  -1.854  0.00  0.00    +0.000 C 
ATOM      4  O   PHE T   1      69.079  17.314  -1.859  0.00  0.00    +0.000 OA
ATOM      5  CB  PHE T   1      70.628  14.598  -0.824  0.00  0.00    +0.000 C 
ATOM      6  CG  PHE T   1      69.555  14.900   0.203  0.00  0.00    +0.000 A 
ATOM      7  CD1 PHE T   1      68.342  14.214   0.192  0.00  0.00    +0.000 A 
ATOM      8  CD2 PHE T   1      69.742  15.899   1.156  0.00  0.00    +0.000 A 
ATOM      9  CE1 PHE T   1      67.338  14.521   1.112  0.00  0.00    +0.000 A 
ATOM     10  CE2 PHE T   1      68.736  16.207   2.076  0.00  0.00    +0.000 A 
ATOM     11  CZ  PHE T   1      67.539  15.519   2.043  0.00  0.00    +0.000 A 
ATOM     12  N   HIS T   2      71.307  17.580  -1.553  0.00  0.00    +0.000 N 
ATOM     13  CA  HIS T   2      71.219  18.991  -1.178  0.00  0.00    +0.000 C 
ATOM     14  C   HIS T   2      70.924  19.879  -2.402  0.00  0.00    +0.000 C 
ATOM     15  O   HIS T   2      70.346  20.955  -2.223  0.00  0.00    +0.000 OA
ATOM     16  CB  HIS T   2      72.494  19.444  -0.476  0.00  0.00    +0.000 C 
ATOM     17  CG  HIS T   2      72.645  18.784   0.857  0.00  0.00    +0.000 A 
ATOM     18  ND1 HIS T   2      72.022  19.290   1.982  0.00  0.00    +0.000 N 
ATOM     19  CD2 HIS T   2      73.252  17.622   1.181  0.00  0.00    +0.000 A 
ATOM     20  CE1 HIS T   2      72.295  18.441   2.955  0.00  0.00    +0.000 A 
ATOM     21  NE2 HIS T   2      73.035  17.421   2.521  0.00  0.00    +0.000 NA
ATOM     22  H   PHE T   1      71.336  15.617  -3.949  0.00  0.00    +0.000 HD
ATOM     23  H   PHE T   1      71.577  14.109  -3.283  0.00  0.00    +0.000 HD
ATOM     24  H   PHE T   1      72.386  15.430  -2.670  0.00  0.00    +0.000 HD
ATOM     25  H   HIS T   2      72.193  17.152  -1.587  0.00  0.00    +0.000 HD
ATOM     26  H   HIS T   2      71.486  20.113   2.045  0.00  0.00    +0.000 HD
TER 
REMARK  Name = /data/user_data/xianyang/t3-aimnet-affinity-balanced/L4/P50052/pocket.pdb
REMARK                            x       y       z     vdW  Elec       q    Type
REMARK                         _______ _______ _______ _____ _____    ______ ____
ATOM      1  N   PRO U   1      64.130   9.836  -3.840  0.00  0.00    +0.000 N 
ATOM      2  CA  PRO U   1      64.406   8.553  -3.152  0.00  0.00    +0.000 C 
ATOM      3  C   PRO U   1      65.798   7.993  -3.485  0.00  0.00    +0.000 C 
ATOM      4  O   PRO U   1      66.404   7.348  -2.636  0.00  0.00    +0.000 OA
ATOM      5  CB  PRO U   1      63.305   7.618  -3.679  0.00  0.00    +0.000 C 
ATOM      6  CG  PRO U   1      62.231   8.512  -4.141  0.00  0.00    +0.000 C 
ATOM      7  CD  PRO U   1      62.926   9.721  -4.688  0.00  0.00    +0.000 C 
ATOM      8  H   PRO U   1      63.981  10.565  -3.143  0.00  0.00    +0.000 HD
ATOM      9  H   PRO U   1      64.928  10.071  -4.431  0.00  0.00    +0.000 HD
TER 
REMARK  Name = /data/user_data/xianyang/t3-aimnet-affinity-balanced/L4/P50052/pocket.pdb
REMARK                            x       y       z     vdW  Elec       q    Type
REMARK                         _______ _______ _______ _____ _____    ______ ____
ATOM      1  N   ILE V   1      68.557  10.218  -1.630  0.00  0.00    +0.000 N 
ATOM      2  CA  ILE V   1      68.499   9.846  -0.211  0.00  0.00    +0.000 C 
ATOM      3  C   ILE V   1      69.343   8.572   0.002  0.00  0.00    +0.000 C 
ATOM      4  O   ILE V   1      70.034   8.470   1.014  0.00  0.00    +0.000 OA
ATOM      5  CB  ILE V   1      67.013   9.660   0.267  0.00  0.00    +0.000 C 
ATOM      6  CG1 ILE V   1      66.279  11.031   0.296  0.00  0.00    +0.000 C 
ATOM      7  CG2 ILE V   1      66.941   8.987   1.654  0.00  0.00    +0.000 C 
ATOM      8  CD1 ILE V   1      64.759  10.990   0.620  0.00  0.00    +0.000 C 
ATOM      9  N   LEU V   2      69.317   7.633  -0.964  0.00  0.00    +0.000 N 
ATOM     10  CA  LEU V   2      70.081   6.386  -0.887  0.00  0.00    +0.000 C 
ATOM     11  C   LEU V   2      71.608   6.666  -0.894  0.00  0.00    +0.000 C 
ATOM     12  O   LEU V   2      72.323   6.033  -0.120  0.00  0.00    +0.000 OA
ATOM     13  CB  LEU V   2      69.706   5.450  -2.045  0.00  0.00    +0.000 C 
ATOM     14  CG  LEU V   2      70.304   4.046  -2.023  0.00  0.00    +0.000 C 
ATOM     15  CD2 LEU V   2      69.802   3.254  -0.823  0.00  0.00    +0.000 C 
ATOM     16  CD1 LEU V   2      69.956   3.311  -3.284  0.00  0.00    +0.000 C 
ATOM     17  H   ILE V   1      69.531  10.332  -1.912  0.00  0.00    +0.000 HD
ATOM     18  H   ILE V   1      68.057  11.096  -1.772  0.00  0.00    +0.000 HD
ATOM     19  H   ILE V   1      68.124   9.485  -2.192  0.00  0.00    +0.000 HD
ATOM     20  H   LEU V   2      68.758   7.793  -1.759  0.00  0.00    +0.000 HD
TER 
REMARK  Name = /data/user_data/xianyang/t3-aimnet-affinity-balanced/L4/P50052/pocket.pdb
REMARK                            x       y       z     vdW  Elec       q    Type
REMARK                         _______ _______ _______ _____ _____    ______ ____
ATOM      1  N   GLY W   1      73.114   9.196   0.305  0.00  0.00    +0.000 N 
ATOM      2  CA  GLY W   1      73.407   9.708   1.637  0.00  0.00    +0.000 C 
ATOM      3  C   GLY W   1      73.752   8.575   2.580  0.00  0.00    +0.000 C 
ATOM      4  O   GLY W   1      74.755   8.651   3.293  0.00  0.00    +0.000 OA
ATOM      5  N   PHE W   2      72.944   7.484   2.549  0.00  0.00    +0.000 N 
ATOM      6  CA  PHE W   2      73.185   6.263   3.331  0.00  0.00    +0.000 C 
ATOM      7  C   PHE W   2      74.405   5.501   2.807  0.00  0.00    +0.000 C 
ATOM      8  O   PHE W   2      75.059   4.805   3.577  0.00  0.00    +0.000 OA
ATOM      9  CB  PHE W   2      71.962   5.323   3.325  0.00  0.00    +0.000 C 
ATOM     10  CG  PHE W   2      70.744   5.793   4.078  0.00  0.00    +0.000 A 
ATOM     11  CD2 PHE W   2      70.645   5.614   5.451  0.00  0.00    +0.000 A 
ATOM     12  CD1 PHE W   2      69.641   6.297   3.402  0.00  0.00    +0.000 A 
ATOM     13  CE2 PHE W   2      69.499   6.012   6.146  0.00  0.00    +0.000 A 
ATOM     14  CE1 PHE W   2      68.485   6.673   4.096  0.00  0.00    +0.000 A 
ATOM     15  CZ  PHE W   2      68.426   6.536   5.463  0.00  0.00    +0.000 A 
ATOM     16  H   GLY W   1      72.884   9.973  -0.315  0.00  0.00    +0.000 HD
ATOM     17  H   GLY W   1      72.323   8.554   0.354  0.00  0.00    +0.000 HD
ATOM     18  H   GLY W   1      73.930   8.702  -0.057  0.00  0.00    +0.000 HD
ATOM     19  H   PHE W   2      72.150   7.513   1.968  0.00  0.00    +0.000 HD
TER 
