REMARK  Name = /home/xianyang/aimnet2_score_pipelines/work/L1234-fixed-receptor-eint-20260921/L1/Q15059/prepared.pdb
REMARK                            x       y       z     vdW  Elec       q    Type
REMARK                         _______ _______ _______ _____ _____    ______ ____
ATOM      1  CH3 ACE A   1      21.371  -2.131  24.408  0.00  0.00    +0.000 C 
ATOM      2  C   ACE A   1      20.148  -1.290  24.056  0.00  0.00    +0.000 C 
ATOM      3  O   ACE A   1      20.296  -0.099  23.741  0.00  0.00    +0.000 OA
ATOM      4  N   ALA A   2      18.948  -1.883  24.074  0.00  0.00    +0.000 N 
ATOM      5  H   ALA A   2      18.882  -2.869  24.268  0.00  0.00    +0.000 HD
ATOM      6  CA  ALA A   2      17.767  -1.174  23.602  0.00  0.00    +0.000 C 
ATOM      7  C   ALA A   2      17.255  -0.151  24.597  0.00  0.00    +0.000 C 
ATOM      8  O   ALA A   2      16.615   0.826  24.180  0.00  0.00    +0.000 OA
ATOM      9  CB  ALA A   2      16.638  -2.153  23.293  0.00  0.00    +0.000 C 
ATOM     10  N   TRP A   3      17.538  -0.338  25.886  0.00  0.00    +0.000 N 
ATOM     11  H   TRP A   3      18.104  -1.122  26.157  0.00  0.00    +0.000 HD
ATOM     12  CA  TRP A   3      16.853   0.438  26.920  0.00  0.00    +0.000 C 
ATOM     13  C   TRP A   3      16.865   1.962  26.714  0.00  0.00    +0.000 C 
ATOM     14  O   TRP A   3      15.847   2.590  27.042  0.00  0.00    +0.000 OA
ATOM     15  CB  TRP A   3      17.399   0.045  28.310  0.00  0.00    +0.000 C 
ATOM     16  CG  TRP A   3      18.875   0.278  28.466  0.00  0.00    +0.000 A 
ATOM     17  CD1 TRP A   3      19.882  -0.595  28.162  0.00  0.00    +0.000 A 
ATOM     18  CD2 TRP A   3      19.508   1.478  28.934  0.00  0.00    +0.000 A 
ATOM     19  NE1 TRP A   3      21.101  -0.011  28.403  0.00  0.00    +0.000 N 
ATOM     20  HE1 TRP A   3      21.995  -0.466  28.288  0.00  0.00    +0.000 HD
ATOM     21  CE2 TRP A   3      20.903   1.259  28.882  0.00  0.00    +0.000 A 
ATOM     22  CE3 TRP A   3      19.030   2.723  29.380  0.00  0.00    +0.000 A 
ATOM     23  CZ2 TRP A   3      21.831   2.240  29.254  0.00  0.00    +0.000 A 
ATOM     24  CZ3 TRP A   3      19.949   3.694  29.770  0.00  0.00    +0.000 A 
ATOM     25  CH2 TRP A   3      21.340   3.443  29.702  0.00  0.00    +0.000 A 
ATOM     26  N   PRO A   4      17.908   2.619  26.173  0.00  0.00    +0.000 N 
ATOM     27  CA  PRO A   4      17.809   4.082  26.010  0.00  0.00    +0.000 C 
ATOM     28  C   PRO A   4      16.701   4.511  25.066  0.00  0.00    +0.000 C 
ATOM     29  O   PRO A   4      16.277   5.673  25.103  0.00  0.00    +0.000 OA
ATOM     30  CB  PRO A   4      19.185   4.479  25.452  0.00  0.00    +0.000 C 
ATOM     31  CG  PRO A   4      20.077   3.335  25.730  0.00  0.00    +0.000 C 
ATOM     32  CD  PRO A   4      19.205   2.131  25.654  0.00  0.00    +0.000 C 
ATOM     33  N   PHE A   5      16.206   3.607  24.232  0.00  0.00    +0.000 N 
ATOM     34  H   PHE A   5      16.570   2.662  24.253  0.00  0.00    +0.000 HD
ATOM     35  CA  PHE A   5      15.217   3.937  23.220  0.00  0.00    +0.000 C 
ATOM     36  C   PHE A   5      13.797   3.548  23.621  0.00  0.00    +0.000 C 
ATOM     37  O   PHE A   5      12.888   3.644  22.801  0.00  0.00    +0.000 OA
ATOM     38  CB  PHE A   5      15.626   3.278  21.912  0.00  0.00    +0.000 C 
ATOM     39  CG  PHE A   5      17.024   3.657  21.482  0.00  0.00    +0.000 A 
ATOM     40  CD1 PHE A   5      17.268   4.890  20.876  0.00  0.00    +0.000 A 
ATOM     41  CD2 PHE A   5      18.094   2.801  21.706  0.00  0.00    +0.000 A 
ATOM     42  CE1 PHE A   5      18.544   5.242  20.494  0.00  0.00    +0.000 A 
ATOM     43  CE2 PHE A   5      19.371   3.156  21.334  0.00  0.00    +0.000 A 
ATOM     44  CZ  PHE A   5      19.596   4.387  20.717  0.00  0.00    +0.000 A 
ATOM     45  N   TYR A   6      13.580   3.123  24.867  0.00  0.00    +0.000 N 
ATOM     46  H   TYR A   6      14.352   3.027  25.518  0.00  0.00    +0.000 HD
ATOM     47  CA  TYR A   6      12.220   2.819  25.288  0.00  0.00    +0.000 C 
ATOM     48  C   TYR A   6      11.386   4.082  25.453  0.00  0.00    +0.000 C 
ATOM     49  O   TYR A   6      10.157   4.019  25.376  0.00  0.00    +0.000 OA
ATOM     50  CB  TYR A   6      12.215   2.024  26.603  0.00  0.00    +0.000 C 
ATOM     51  CG  TYR A   6      12.849   0.639  26.571  0.00  0.00    +0.000 A 
ATOM     52  CD1 TYR A   6      13.126  -0.016  25.371  0.00  0.00    +0.000 A 
ATOM     53  CD2 TYR A   6      13.160  -0.021  27.760  0.00  0.00    +0.000 A 
ATOM     54  CE1 TYR A   6      13.708  -1.284  25.358  0.00  0.00    +0.000 A 
ATOM     55  CE2 TYR A   6      13.739  -1.277  27.759  0.00  0.00    +0.000 A 
ATOM     56  CZ  TYR A   6      14.004  -1.908  26.554  0.00  0.00    +0.000 A 
ATOM     57  OH  TYR A   6      14.575  -3.168  26.560  0.00  0.00    +0.000 OA
ATOM     58  HH  TYR A   6      14.319  -3.663  27.338  0.00  0.00    +0.000 HD
ATOM     59  N   GLN A   7      12.023   5.225  25.657  0.00  0.00    +0.000 N 
ATOM     60  H   GLN A   7      13.033   5.250  25.609  0.00  0.00    +0.000 HD
ATOM     61  CA  GLN A   7      11.332   6.447  26.028  0.00  0.00    +0.000 C 
ATOM     62  C   GLN A   7      11.997   7.617  25.319  0.00  0.00    +0.000 C 
ATOM     63  O   GLN A   7      13.182   7.535  24.976  0.00  0.00    +0.000 OA
ATOM     64  CB  GLN A   7      11.381   6.659  27.549  0.00  0.00    +0.000 C 
ATOM     65  CG  GLN A   7      10.361   5.822  28.300  0.00  0.00    +0.000 C 
ATOM     66  CD  GLN A   7      10.176   6.250  29.756  0.00  0.00    +0.000 C 
ATOM     67  OE1 GLN A   7      10.963   5.872  30.629  0.00  0.00    +0.000 OA
ATOM     68  NE2 GLN A   7       9.122   7.028  30.023  0.00  0.00    +0.000 N 
ATOM     69 HE21 GLN A   7       8.503   7.328  29.296  0.00  0.00    +0.000 HD
ATOM     70 HE22 GLN A   7       9.006   7.305  30.982  0.00  0.00    +0.000 HD
ATOM     71  N   PRO A   8      11.266   8.716  25.095  0.00  0.00    +0.000 N 
ATOM     72  CA  PRO A   8      11.868   9.891  24.433  0.00  0.00    +0.000 C 
ATOM     73  C   PRO A   8      13.110  10.411  25.159  0.00  0.00    +0.000 C 
ATOM     74  O   PRO A   8      13.193  10.396  26.388  0.00  0.00    +0.000 OA
ATOM     75  CB  PRO A   8      10.745  10.939  24.466  0.00  0.00    +0.000 C 
ATOM     76  CG  PRO A   8       9.451  10.149  24.696  0.00  0.00    +0.000 C 
ATOM     77  CD  PRO A   8       9.860   8.935  25.489  0.00  0.00    +0.000 C 
ATOM     78  N   VAL A   9      14.076  10.903  24.378  0.00  0.00    +0.000 N 
ATOM     79  H   VAL A   9      13.966  10.872  23.379  0.00  0.00    +0.000 HD
ATOM     80  CA  VAL A   9      15.224  11.595  24.951  0.00  0.00    +0.000 C 
ATOM     81  C   VAL A   9      14.736  12.704  25.877  0.00  0.00    +0.000 C 
ATOM     82  O   VAL A   9      14.005  13.608  25.462  0.00  0.00    +0.000 OA
ATOM     83  CB  VAL A   9      16.144  12.163  23.858  0.00  0.00    +0.000 C 
ATOM     84  CG1 VAL A   9      17.151  13.120  24.470  0.00  0.00    +0.000 C 
ATOM     85  CG2 VAL A   9      16.857  11.031  23.138  0.00  0.00    +0.000 C 
ATOM     86  N   ASP A  10      15.122  12.629  27.138  0.00  0.00    +0.000 N 
ATOM     87  H   ASP A  10      15.625  11.813  27.442  0.00  0.00    +0.000 HD
ATOM     88  CA  ASP A  10      14.747  13.613  28.150  0.00  0.00    +0.000 C 
ATOM     89  C   ASP A  10      15.905  14.593  28.276  0.00  0.00    +0.000 C 
ATOM     90  O   ASP A  10      16.878  14.313  28.978  0.00  0.00    +0.000 OA
ATOM     91  CB  ASP A  10      14.458  12.900  29.466  0.00  0.00    +0.000 C 
ATOM     92  CG  ASP A  10      13.985  13.825  30.559  0.00  0.00    +0.000 C 
ATOM     93  OD1 ASP A  10      14.347  15.018  30.575  0.00  0.00    +0.000 OA
ATOM     94  OD2 ASP A  10      13.247  13.334  31.432  0.00  0.00    +0.000 OA
ATOM     95  N   ALA A  11      15.809  15.741  27.584  0.00  0.00    +0.000 N 
ATOM     96  H   ALA A  11      15.006  15.893  26.989  0.00  0.00    +0.000 HD
ATOM     97  CA  ALA A  11      16.880  16.738  27.621  0.00  0.00    +0.000 C 
ATOM     98  C   ALA A  11      17.030  17.413  28.985  0.00  0.00    +0.000 C 
ATOM     99  O   ALA A  11      18.049  18.065  29.221  0.00  0.00    +0.000 OA
ATOM    100  CB  ALA A  11      16.676  17.810  26.540  0.00  0.00    +0.000 C 
ATOM    101  N   ILE A  12      16.066  17.270  29.889  0.00  0.00    +0.000 N 
ATOM    102  H   ILE A  12      15.299  16.622  29.718  0.00  0.00    +0.000 HD
ATOM    103  CA  ILE A  12      16.254  17.763  31.252  0.00  0.00    +0.000 C 
ATOM    104  C   ILE A  12      17.126  16.809  32.054  0.00  0.00    +0.000 C 
ATOM    105  O   ILE A  12      18.166  17.203  32.588  0.00  0.00    +0.000 OA
ATOM    106  CB  ILE A  12      14.902  17.973  31.959  0.00  0.00    +0.000 C 
ATOM    107  CG1 ILE A  12      14.022  18.950  31.186  0.00  0.00    +0.000 C 
ATOM    108  CG2 ILE A  12      15.141  18.469  33.388  0.00  0.00    +0.000 C 
ATOM    109  CD1 ILE A  12      14.207  20.362  31.603  0.00  0.00    +0.000 C 
ATOM    110  N   LYS A  13      16.684  15.552  32.181  0.00  0.00    +0.000 N 
ATOM    111  H   LYS A  13      15.810  15.302  31.711  0.00  0.00    +0.000 HD
ATOM    112  CA  LYS A  13      17.430  14.547  32.938  0.00  0.00    +0.000 C 
ATOM    113  C   LYS A  13      18.869  14.442  32.449  0.00  0.00    +0.000 C 
ATOM    114  O   LYS A  13      19.813  14.490  33.245  0.00  0.00    +0.000 OA
ATOM    115  CB  LYS A  13      16.729  13.189  32.834  0.00  0.00    +0.000 C 
ATOM    116  CG  LYS A  13      17.554  12.020  33.374  0.00  0.00    +0.000 C 
ATOM    117  CD  LYS A  13      16.746  10.717  33.408  0.00  0.00    +0.000 C 
ATOM    118  CE  LYS A  13      16.991   9.944  34.712  0.00  0.00    +0.000 C 
ATOM    119  NZ  LYS A  13      16.248   8.647  34.804  0.00  0.00    +0.000 N 
ATOM    120  HZ1 LYS A  13      16.437   8.187  35.685  0.00  0.00    +0.000 HD
ATOM    121  HZ2 LYS A  13      15.251   8.813  34.733  0.00  0.00    +0.000 HD
ATOM    122  HZ3 LYS A  13      16.517   8.030  34.048  0.00  0.00    +0.000 HD
ATOM    123  N   LEU A  14      19.055  14.319  31.133  0.00  0.00    +0.000 N 
ATOM    124  H   LEU A  14      18.242  14.330  30.524  0.00  0.00    +0.000 HD
ATOM    125  CA  LEU A  14      20.376  14.130  30.548  0.00  0.00    +0.000 C 
ATOM    126  C   LEU A  14      21.149  15.435  30.361  0.00  0.00    +0.000 C 
ATOM    127  O   LEU A  14      22.293  15.384  29.901  0.00  0.00    +0.000 OA
ATOM    128  CB  LEU A  14      20.253  13.412  29.199  0.00  0.00    +0.000 C 
ATOM    129  CG  LEU A  14      19.402  12.143  29.185  0.00  0.00    +0.000 C 
ATOM    130  CD1 LEU A  14      19.138  11.695  27.753  0.00  0.00    +0.000 C 
ATOM    131  CD2 LEU A  14      20.102  11.047  29.972  0.00  0.00    +0.000 C 
ATOM    132  N   ASN A  15      20.560  16.590  30.690  0.00  0.00    +0.000 N 
ATOM    133  H   ASN A  15      19.648  16.569  31.127  0.00  0.00    +0.000 HD
ATOM    134  CA  ASN A  15      21.225  17.895  30.574  0.00  0.00    +0.000 C 
ATOM    135  C   ASN A  15      21.725  18.137  29.144  0.00  0.00    +0.000 C 
ATOM    136  O   ASN A  15      22.912  18.076  28.842  0.00  0.00    +0.000 OA
ATOM    137  CB  ASN A  15      22.373  18.011  31.584  0.00  0.00    +0.000 C 
ATOM    138  CG  ASN A  15      22.918  19.423  31.687  0.00  0.00    +0.000 C 
ATOM    139  OD1 ASN A  15      22.160  20.384  31.833  0.00  0.00    +0.000 OA
ATOM    140  ND2 ASN A  15      24.239  19.557  31.609  0.00  0.00    +0.000 N 
ATOM    141 HD21 ASN A  15      24.812  18.741  31.529  0.00  0.00    +0.000 HD
ATOM    142 HD22 ASN A  15      24.584  20.496  31.586  0.00  0.00    +0.000 HD
ATOM    143  N   LEU A  16      20.771  18.411  28.261  0.00  0.00    +0.000 N 
ATOM    144  H   LEU A  16      19.808  18.419  28.587  0.00  0.00    +0.000 HD
ATOM    145  CA  LEU A  16      21.037  18.587  26.836  0.00  0.00    +0.000 C 
ATOM    146  C   LEU A  16      20.338  19.858  26.355  0.00  0.00    +0.000 C 
ATOM    147  O   LEU A  16      19.312  19.809  25.658  0.00  0.00    +0.000 OA
ATOM    148  CB  LEU A  16      20.597  17.353  26.051  0.00  0.00    +0.000 C 
ATOM    149  CG  LEU A  16      21.004  15.987  26.612  0.00  0.00    +0.000 C 
ATOM    150  CD1 LEU A  16      20.370  14.914  25.768  0.00  0.00    +0.000 C 
ATOM    151  CD2 LEU A  16      22.515  15.818  26.614  0.00  0.00    +0.000 C 
ATOM    152  N   PRO A  17      20.892  21.022  26.677  0.00  0.00    +0.000 N 
ATOM    153  CA  PRO A  17      20.173  22.267  26.354  0.00  0.00    +0.000 C 
ATOM    154  C   PRO A  17      19.927  22.438  24.862  0.00  0.00    +0.000 C 
ATOM    155  O   PRO A  17      18.908  23.021  24.459  0.00  0.00    +0.000 OA
ATOM    156  CB  PRO A  17      21.091  23.367  26.911  0.00  0.00    +0.000 C 
ATOM    157  CG  PRO A  17      22.407  22.677  27.297  0.00  0.00    +0.000 C 
ATOM    158  CD  PRO A  17      22.331  21.234  26.920  0.00  0.00    +0.000 C 
ATOM    159  N   ASP A  18      20.794  21.878  24.027  0.00  0.00    +0.000 N 
ATOM    160  H   ASP A  18      21.644  21.475  24.379  0.00  0.00    +0.000 HD
ATOM    161  CA  ASP A  18      20.654  22.129  22.598  0.00  0.00    +0.000 C 
ATOM    162  C   ASP A  18      20.174  20.905  21.811  0.00  0.00    +0.000 C 
ATOM    163  O   ASP A  18      20.130  20.957  20.576  0.00  0.00    +0.000 OA
ATOM    164  CB  ASP A  18      21.969  22.681  22.035  0.00  0.00    +0.000 C 
ATOM    165  CG  ASP A  18      22.292  24.090  22.557  0.00  0.00    +0.000 C 
ATOM    166  OD1 ASP A  18      21.366  24.864  22.889  0.00  0.00    +0.000 OA
ATOM    167  OD2 ASP A  18      23.490  24.429  22.634  0.00  0.00    +0.000 OA
ATOM    168  N   TYR A  19      19.719  19.846  22.489  0.00  0.00    +0.000 N 
ATOM    169  H   TYR A  19      19.699  19.876  23.502  0.00  0.00    +0.000 HD
ATOM    170  CA  TYR A  19      19.247  18.660  21.772  0.00  0.00    +0.000 C 
ATOM    171  C   TYR A  19      18.097  18.993  20.823  0.00  0.00    +0.000 C 
ATOM    172  O   TYR A  19      18.104  18.593  19.651  0.00  0.00    +0.000 OA
ATOM    173  CB  TYR A  19      18.809  17.567  22.745  0.00  0.00    +0.000 C 
ATOM    174  CG  TYR A  19      18.438  16.260  22.039  0.00  0.00    +0.000 A 
ATOM    175  CD1 TYR A  19      17.114  15.945  21.749  0.00  0.00    +0.000 A 
ATOM    176  CD2 TYR A  19      19.422  15.351  21.651  0.00  0.00    +0.000 A 
ATOM    177  CE1 TYR A  19      16.786  14.749  21.098  0.00  0.00    +0.000 A 
ATOM    178  CE2 TYR A  19      19.099  14.166  21.012  0.00  0.00    +0.000 A 
ATOM    179  CZ  TYR A  19      17.781  13.868  20.738  0.00  0.00    +0.000 A 
ATOM    180  OH  TYR A  19      17.480  12.681  20.093  0.00  0.00    +0.000 OA
ATOM    181  HH  TYR A  19      16.535  12.544  20.072  0.00  0.00    +0.000 HD
ATOM    182  N   HIS A  20      17.091  19.702  21.313  0.00  0.00    +0.000 N 
ATOM    183  H   HIS A  20      17.123  20.032  22.265  0.00  0.00    +0.000 HD
ATOM    184  CA  HIS A  20      15.953  20.004  20.462  0.00  0.00    +0.000 C 
ATOM    185  C   HIS A  20      16.236  21.111  19.456  0.00  0.00    +0.000 C 
ATOM    186  O   HIS A  20      15.401  21.360  18.582  0.00  0.00    +0.000 OA
ATOM    187  CB  HIS A  20      14.753  20.339  21.337  0.00  0.00    +0.000 C 
ATOM    188  CG  HIS A  20      14.364  19.209  22.244  0.00  0.00    +0.000 A 
ATOM    189  ND1 HIS A  20      13.729  18.075  21.786  0.00  0.00    +0.000 N 
ATOM    190  HD1 HIS A  20      13.435  17.919  20.834  0.00  0.00    +0.000 HD
ATOM    191  CD2 HIS A  20      14.557  19.021  23.571  0.00  0.00    +0.000 A 
ATOM    192  CE1 HIS A  20      13.525  17.246  22.795  0.00  0.00    +0.000 A 
ATOM    193  NE2 HIS A  20      14.025  17.793  23.888  0.00  0.00    +0.000 NA
ATOM    194  N   NME A  21      17.395  21.763  19.540  0.00  0.00    +0.000 N 
ATOM    195  H   NME A  21      18.095  21.456  20.204  0.00  0.00    +0.000 HD
ATOM    196  C   NME A  21      17.813  22.659  18.475  0.00  0.00    +0.000 C 
TER 
REMARK  Name = /home/xianyang/aimnet2_score_pipelines/work/L1234-fixed-receptor-eint-20260921/L1/Q15059/prepared.pdb
REMARK                            x       y       z     vdW  Elec       q    Type
REMARK                         _______ _______ _______ _____ _____    ______ ____
ATOM      1  CH3 ACE B   1      19.703   8.880  12.536  0.00  0.00    +0.000 C 
ATOM      2  C   ACE B   1      19.901  10.055  13.487  0.00  0.00    +0.000 C 
ATOM      3  O   ACE B   1      20.996  10.628  13.549  0.00  0.00    +0.000 OA
ATOM      4  N   ASN B   2      18.847  10.427  14.239  0.00  0.00    +0.000 N 
ATOM      5  H   ASN B   2      17.938  10.041  14.034  0.00  0.00    +0.000 HD
ATOM      6  CA  ASN B   2      18.972  11.428  15.305  0.00  0.00    +0.000 C 
ATOM      7  C   ASN B   2      20.153  11.126  16.212  0.00  0.00    +0.000 C 
ATOM      8  O   ASN B   2      20.861  12.032  16.658  0.00  0.00    +0.000 OA
ATOM      9  CB  ASN B   2      17.712  11.452  16.161  0.00  0.00    +0.000 C 
ATOM     10  CG  ASN B   2      16.537  12.067  15.459  0.00  0.00    +0.000 C 
ATOM     11  OD1 ASN B   2      16.652  12.558  14.339  0.00  0.00    +0.000 OA
ATOM     12  ND2 ASN B   2      15.385  12.035  16.115  0.00  0.00    +0.000 N 
ATOM     13 HD21 ASN B   2      14.600  12.456  15.646  0.00  0.00    +0.000 HD
ATOM     14 HD22 ASN B   2      15.310  11.631  17.027  0.00  0.00    +0.000 HD
ATOM     15  N   CYS B   3      20.353   9.845  16.516  0.00  0.00    +0.000 N 
ATOM     16  H   CYS B   3      19.738   9.152  16.123  0.00  0.00    +0.000 HD
ATOM     17  CA  CYS B   3      21.415   9.436  17.419  0.00  0.00    +0.000 C 
ATOM     18  C   CYS B   3      22.793   9.724  16.824  0.00  0.00    +0.000 C 
ATOM     19  O   CYS B   3      23.677  10.274  17.500  0.00  0.00    +0.000 OA
ATOM     20  CB  CYS B   3      21.238   7.949  17.716  0.00  0.00    +0.000 C 
ATOM     21  SG  CYS B   3      22.103   7.368  19.100  0.00  0.00    +0.000 S 
ATOM     22  HG  CYS B   3      21.674   8.270  19.989  0.00  0.00    +0.000 HD
ATOM     23  N   TYR B   4      22.996   9.340  15.561  0.00  0.00    +0.000 N 
ATOM     24  H   TYR B   4      22.252   8.912  15.035  0.00  0.00    +0.000 HD
ATOM     25  CA  TYR B   4      24.247   9.639  14.871  0.00  0.00    +0.000 C 
ATOM     26  C   TYR B   4      24.457  11.137  14.707  0.00  0.00    +0.000 C 
ATOM     27  O   TYR B   4      25.591  11.613  14.786  0.00  0.00    +0.000 OA
ATOM     28  CB  TYR B   4      24.260   8.961  13.499  0.00  0.00    +0.000 C 
ATOM     29  CG  TYR B   4      23.939   7.498  13.552  0.00  0.00    +0.000 A 
ATOM     30  CD1 TYR B   4      24.447   6.706  14.566  0.00  0.00    +0.000 A 
ATOM     31  CD2 TYR B   4      23.117   6.901  12.598  0.00  0.00    +0.000 A 
ATOM     32  CE1 TYR B   4      24.160   5.370  14.642  0.00  0.00    +0.000 A 
ATOM     33  CE2 TYR B   4      22.824   5.545  12.659  0.00  0.00    +0.000 A 
ATOM     34  CZ  TYR B   4      23.358   4.786  13.682  0.00  0.00    +0.000 A 
ATOM     35  OH  TYR B   4      23.087   3.446  13.788  0.00  0.00    +0.000 OA
ATOM     36  HH  TYR B   4      23.455   3.044  14.574  0.00  0.00    +0.000 HD
ATOM     37  N   ILE B   5      23.378  11.891  14.480  0.00  0.00    +0.000 N 
ATOM     38  H   ILE B   5      22.481  11.440  14.348  0.00  0.00    +0.000 HD
ATOM     39  CA  ILE B   5      23.490  13.330  14.229  0.00  0.00    +0.000 C 
ATOM     40  C   ILE B   5      23.886  14.069  15.503  0.00  0.00    +0.000 C 
ATOM     41  O   ILE B   5      24.779  14.928  15.494  0.00  0.00    +0.000 OA
ATOM     42  CB  ILE B   5      22.162  13.880  13.664  0.00  0.00    +0.000 C 
ATOM     43  CG1 ILE B   5      21.864  13.337  12.266  0.00  0.00    +0.000 C 
ATOM     44  CG2 ILE B   5      22.160  15.398  13.628  0.00  0.00    +0.000 C 
ATOM     45  CD1 ILE B   5      23.068  13.254  11.388  0.00  0.00    +0.000 C 
ATOM     46  N   TYR B   6      23.201  13.779  16.616  0.00  0.00    +0.000 N 
ATOM     47  H   TYR B   6      22.455  13.094  16.595  0.00  0.00    +0.000 HD
ATOM     48  CA  TYR B   6      23.420  14.590  17.815  0.00  0.00    +0.000 C 
ATOM     49  C   TYR B   6      24.751  14.277  18.503  0.00  0.00    +0.000 C 
ATOM     50  O   TYR B   6      25.446  15.196  18.949  0.00  0.00    +0.000 OA
ATOM     51  CB  TYR B   6      22.273  14.415  18.819  0.00  0.00    +0.000 C 
ATOM     52  CG  TYR B   6      22.530  15.190  20.096  0.00  0.00    +0.000 A 
ATOM     53  CD1 TYR B   6      22.439  16.579  20.108  0.00  0.00    +0.000 A 
ATOM     54  CD2 TYR B   6      22.930  14.548  21.267  0.00  0.00    +0.000 A 
ATOM     55  CE1 TYR B   6      22.705  17.303  21.253  0.00  0.00    +0.000 A 
ATOM     56  CE2 TYR B   6      23.203  15.268  22.423  0.00  0.00    +0.000 A 
ATOM     57  CZ  TYR B   6      23.087  16.653  22.402  0.00  0.00    +0.000 A 
ATOM     58  OH  TYR B   6      23.336  17.400  23.529  0.00  0.00    +0.000 OA
ATOM     59  HH  TYR B   6      23.779  16.888  24.200  0.00  0.00    +0.000 HD
ATOM     60  N   ASN B   7      25.119  13.001  18.604  0.00  0.00    +0.000 N 
ATOM     61  H   ASN B   7      24.617  12.305  18.073  0.00  0.00    +0.000 HD
ATOM     62  CA  ASN B   7      26.200  12.574  19.482  0.00  0.00    +0.000 C 
ATOM     63  C   ASN B   7      27.543  12.558  18.751  0.00  0.00    +0.000 C 
ATOM     64  O   ASN B   7      27.628  12.711  17.536  0.00  0.00    +0.000 OA
ATOM     65  CB  ASN B   7      25.890  11.189  20.059  0.00  0.00    +0.000 C 
ATOM     66  CG  ASN B   7      24.629  11.180  20.904  0.00  0.00    +0.000 C 
ATOM     67  OD1 ASN B   7      24.612  11.707  22.013  0.00  0.00    +0.000 OA
ATOM     68  ND2 ASN B   7      23.566  10.578  20.383  0.00  0.00    +0.000 N 
ATOM     69 HD21 ASN B   7      23.624  10.261  19.421  0.00  0.00    +0.000 HD
ATOM     70 HD22 ASN B   7      22.726  10.593  20.926  0.00  0.00    +0.000 HD
ATOM     71  N   LYS B   8      28.604  12.349  19.512  0.00  0.00    +0.000 N 
ATOM     72  H   LYS B   8      28.481  12.117  20.497  0.00  0.00    +0.000 HD
ATOM     73  CA  LYS B   8      29.930  12.313  18.922  0.00  0.00    +0.000 C 
ATOM     74  C   LYS B   8      30.229  10.923  18.369  0.00  0.00    +0.000 C 
ATOM     75  O   LYS B   8      29.639   9.933  18.810  0.00  0.00    +0.000 OA
ATOM     76  CB  LYS B   8      30.969  12.719  19.961  0.00  0.00    +0.000 C 
ATOM     77  CG  LYS B   8      31.059  14.215  20.177  0.00  0.00    +0.000 C 
ATOM     78  CD  LYS B   8      31.109  14.542  21.670  0.00  0.00    +0.000 C 
ATOM     79  CE  LYS B   8      32.114  13.655  22.412  0.00  0.00    +0.000 C 
ATOM     80  NZ  LYS B   8      31.905  13.687  23.889  0.00  0.00    +0.000 N 
ATOM     81  HZ1 LYS B   8      31.010  13.241  24.079  0.00  0.00    +0.000 HD
ATOM     82  HZ2 LYS B   8      32.603  13.126  24.358  0.00  0.00    +0.000 HD
ATOM     83  HZ3 LYS B   8      31.901  14.630  24.249  0.00  0.00    +0.000 HD
ATOM     84  N   PRO B   9      31.148  10.821  17.401  0.00  0.00    +0.000 N 
ATOM     85  CA  PRO B   9      31.336   9.536  16.700  0.00  0.00    +0.000 C 
ATOM     86  C   PRO B   9      31.629   8.361  17.613  0.00  0.00    +0.000 C 
ATOM     87  O   PRO B   9      31.184   7.247  17.314  0.00  0.00    +0.000 OA
ATOM     88  CB  PRO B   9      32.517   9.827  15.760  0.00  0.00    +0.000 C 
ATOM     89  CG  PRO B   9      32.390  11.313  15.475  0.00  0.00    +0.000 C 
ATOM     90  CD  PRO B   9      31.966  11.899  16.802  0.00  0.00    +0.000 C 
ATOM     91  N   THR B  10      32.342   8.563  18.720  0.00  0.00    +0.000 N 
ATOM     92  H   THR B  10      32.691   9.482  18.938  0.00  0.00    +0.000 HD
ATOM     93  CA  THR B  10      32.740   7.458  19.586  0.00  0.00    +0.000 C 
ATOM     94  C   THR B  10      31.869   7.317  20.834  0.00  0.00    +0.000 C 
ATOM     95  O   THR B  10      32.186   6.499  21.701  0.00  0.00    +0.000 OA
ATOM     96  CB  THR B  10      34.209   7.610  20.003  0.00  0.00    +0.000 C 
ATOM     97  OG1 THR B  10      34.397   8.870  20.661  0.00  0.00    +0.000 OA
ATOM     98  HG1 THR B  10      34.033   8.772  21.556  0.00  0.00    +0.000 HD
ATOM     99  CG2 THR B  10      35.127   7.539  18.775  0.00  0.00    +0.000 C 
ATOM    100  N   ASP B  11      30.788   8.088  20.954  0.00  0.00    +0.000 N 
ATOM    101  H   ASP B  11      30.486   8.671  20.183  0.00  0.00    +0.000 HD
ATOM    102  CA  ASP B  11      29.914   7.936  22.112  0.00  0.00    +0.000 C 
ATOM    103  C   ASP B  11      29.307   6.533  22.154  0.00  0.00    +0.000 C 
ATOM    104  O   ASP B  11      29.030   5.915  21.123  0.00  0.00    +0.000 OA
ATOM    105  CB  ASP B  11      28.807   8.990  22.089  0.00  0.00    +0.000 C 
ATOM    106  CG  ASP B  11      29.321  10.386  22.405  0.00  0.00    +0.000 C 
ATOM    107  OD1 ASP B  11      28.622  11.358  22.059  0.00  0.00    +0.000 OA
ATOM    108  OD2 ASP B  11      30.415  10.512  23.004  0.00  0.00    +0.000 OA
ATOM    109  N   ASP B  12      29.103   6.031  23.371  0.00  0.00    +0.000 N 
ATOM    110  H   ASP B  12      29.477   6.508  24.180  0.00  0.00    +0.000 HD
ATOM    111  CA  ASP B  12      28.509   4.709  23.557  0.00  0.00    +0.000 C 
ATOM    112  C   ASP B  12      27.181   4.551  22.821  0.00  0.00    +0.000 C 
ATOM    113  O   ASP B  12      26.916   3.497  22.223  0.00  0.00    +0.000 OA
ATOM    114  CB  ASP B  12      28.318   4.436  25.048  0.00  0.00    +0.000 C 
ATOM    115  CG  ASP B  12      29.634   4.311  25.783  0.00  0.00    +0.000 C 
ATOM    116  OD1 ASP B  12      30.474   3.501  25.347  0.00  0.00    +0.000 OA
ATOM    117  OD2 ASP B  12      29.831   5.014  26.793  0.00  0.00    +0.000 OA
ATOM    118  N   ILE B  13      26.331   5.582  22.849  0.00  0.00    +0.000 N 
ATOM    119  H   ILE B  13      26.596   6.418  23.347  0.00  0.00    +0.000 HD
ATOM    120  CA  ILE B  13      24.979   5.424  22.317  0.00  0.00    +0.000 C 
ATOM    121  C   ILE B  13      25.022   5.219  20.810  0.00  0.00    +0.000 C 
ATOM    122  O   ILE B  13      24.198   4.487  20.248  0.00  0.00    +0.000 OA
ATOM    123  CB  ILE B  13      24.108   6.629  22.731  0.00  0.00    +0.000 C 
ATOM    124  CG1 ILE B  13      22.619   6.339  22.523  0.00  0.00    +0.000 C 
ATOM    125  CG2 ILE B  13      24.556   7.910  22.026  0.00  0.00    +0.000 C 
ATOM    126  CD1 ILE B  13      22.104   5.197  23.341  0.00  0.00    +0.000 C 
ATOM    127  N   VAL B  14      26.015   5.815  20.141  0.00  0.00    +0.000 N 
ATOM    128  H   VAL B  14      26.732   6.302  20.664  0.00  0.00    +0.000 HD
ATOM    129  CA  VAL B  14      26.232   5.569  18.715  0.00  0.00    +0.000 C 
ATOM    130  C   VAL B  14      26.464   4.085  18.454  0.00  0.00    +0.000 C 
ATOM    131  O   VAL B  14      25.819   3.474  17.591  0.00  0.00    +0.000 OA
ATOM    132  CB  VAL B  14      27.412   6.411  18.208  0.00  0.00    +0.000 C 
ATOM    133  CG1 VAL B  14      27.712   6.085  16.750  0.00  0.00    +0.000 C 
ATOM    134  CG2 VAL B  14      27.123   7.890  18.425  0.00  0.00    +0.000 C 
ATOM    135  N   LEU B  15      27.377   3.475  19.208  0.00  0.00    +0.000 N 
ATOM    136  H   LEU B  15      27.871   3.986  19.932  0.00  0.00    +0.000 HD
ATOM    137  CA  LEU B  15      27.642   2.061  18.995  0.00  0.00    +0.000 C 
ATOM    138  C   LEU B  15      26.445   1.200  19.388  0.00  0.00    +0.000 C 
ATOM    139  O   LEU B  15      26.215   0.162  18.770  0.00  0.00    +0.000 OA
ATOM    140  CB  LEU B  15      28.914   1.642  19.735  0.00  0.00    +0.000 C 
ATOM    141  CG  LEU B  15      30.253   2.109  19.120  0.00  0.00    +0.000 C 
ATOM    142  CD1 LEU B  15      30.411   3.636  18.879  0.00  0.00    +0.000 C 
ATOM    143  CD2 LEU B  15      31.423   1.562  19.915  0.00  0.00    +0.000 C 
ATOM    144  N   MET B  16      25.633   1.635  20.358  0.00  0.00    +0.000 N 
ATOM    145  H   MET B  16      25.892   2.463  20.887  0.00  0.00    +0.000 HD
ATOM    146  CA  MET B  16      24.418   0.890  20.691  0.00  0.00    +0.000 C 
ATOM    147  C   MET B  16      23.384   0.999  19.582  0.00  0.00    +0.000 C 
ATOM    148  O   MET B  16      22.718   0.012  19.259  0.00  0.00    +0.000 OA
ATOM    149  CB  MET B  16      23.819   1.384  22.014  0.00  0.00    +0.000 C 
ATOM    150  CG  MET B  16      24.797   1.366  23.189  0.00  0.00    +0.000 C 
ATOM    151  SD  MET B  16      24.198   2.267  24.637  0.00  0.00    +0.000 S 
ATOM    152  CE  MET B  16      22.943   1.180  25.246  0.00  0.00    +0.000 C 
ATOM    153  N   ALA B  17      23.227   2.193  18.996  0.00  0.00    +0.000 N 
ATOM    154  H   ALA B  17      23.775   2.983  19.315  0.00  0.00    +0.000 HD
ATOM    155  CA  ALA B  17      22.267   2.379  17.912  0.00  0.00    +0.000 C 
ATOM    156  C   ALA B  17      22.663   1.568  16.685  0.00  0.00    +0.000 C 
ATOM    157  O   ALA B  17      21.801   1.002  16.002  0.00  0.00    +0.000 OA
ATOM    158  CB  ALA B  17      22.146   3.872  17.556  0.00  0.00    +0.000 C 
ATOM    159  N   NME B  18      23.966   1.495  16.394  0.00  0.00    +0.000 N 
ATOM    160  H   NME B  18      24.637   1.950  17.006  0.00  0.00    +0.000 HD
ATOM    161  C   NME B  18      24.433   0.729  15.238  0.00  0.00    +0.000 C 
TER 
