REMARK  Name = /data/user_data/xianyang/t3-aimnet-affinity-balanced/L2/O14757/pocket.pdb
REMARK                            x       y       z     vdW  Elec       q    Type
REMARK                         _______ _______ _______ _____ _____    ______ ____
ATOM      1  N   LEU A   1      18.082  -6.859   5.845  0.00  0.00    +0.000 N 
ATOM      2  CA  LEU A   1      18.653  -5.958   6.842  0.00  0.00    +0.000 C 
ATOM      3  C   LEU A   1      18.912  -6.550   8.232  0.00  0.00    +0.000 C 
ATOM      4  O   LEU A   1      19.889  -6.218   8.893  0.00  0.00    +0.000 OA
ATOM      5  CB  LEU A   1      17.789  -4.701   6.952  0.00  0.00    +0.000 C 
ATOM      6  CG  LEU A   1      17.718  -3.880   5.668  0.00  0.00    +0.000 C 
ATOM      7  CD2 LEU A   1      16.671  -2.786   5.771  0.00  0.00    +0.000 C 
ATOM      8  CD1 LEU A   1      19.083  -3.303   5.340  0.00  0.00    +0.000 C 
ATOM      9  N   GLY A   2      18.001  -7.405   8.670  0.00  0.00    +0.000 N 
ATOM     10  CA  GLY A   2      18.050  -8.004   9.990  0.00  0.00    +0.000 C 
ATOM     11  C   GLY A   2      16.966  -9.032  10.204  0.00  0.00    +0.000 C 
ATOM     12  O   GLY A   2      16.108  -9.248   9.342  0.00  0.00    +0.000 OA
ATOM     13  N   ALA A   3      17.016  -9.670  11.365  0.00  0.00    +0.000 N 
ATOM     14  CA  ALA A   3      16.066 -10.697  11.753  0.00  0.00    +0.000 C 
ATOM     15  C   ALA A   3      15.348 -10.293  13.021  0.00  0.00    +0.000 C 
ATOM     16  O   ALA A   3      15.928  -9.647  13.899  0.00  0.00    +0.000 OA
ATOM     17  CB  ALA A   3      16.768 -12.055  11.939  0.00  0.00    +0.000 C 
ATOM     18  N   GLY A   4      14.076 -10.652  13.065  0.00  0.00    +0.000 N 
ATOM     19  CA  GLY A   4      13.183 -10.467  14.199  0.00  0.00    +0.000 C 
ATOM     20  C   GLY A   4      12.594 -11.814  14.558  0.00  0.00    +0.000 C 
ATOM     21  O   GLY A   4      12.848 -12.808  13.863  0.00  0.00    +0.000 OA
ATOM     22  H   LEU A   1      17.955  -6.357   4.966  0.00  0.00    +0.000 HD
ATOM     23  H   LEU A   1      17.179  -7.202   6.174  0.00  0.00    +0.000 HD
ATOM     24  H   LEU A   1      18.712  -7.647   5.699  0.00  0.00    +0.000 HD
ATOM     25  H   GLY A   2      17.256  -7.645   8.072  0.00  0.00    +0.000 HD
ATOM     26  H   ALA A   3      17.734  -9.435  11.996  0.00  0.00    +0.000 HD
ATOM     27  H   GLY A   4      13.701 -11.081  12.262  0.00  0.00    +0.000 HD
TER 
REMARK  Name = /data/user_data/xianyang/t3-aimnet-affinity-balanced/L2/O14757/pocket.pdb
REMARK                            x       y       z     vdW  Elec       q    Type
REMARK                         _______ _______ _______ _____ _____    ______ ____
ATOM      1  N   VAL B   1      13.383  -8.239   8.268  0.00  0.00    +0.000 N 
ATOM      2  CA  VAL B   1      13.334  -6.831   7.905  0.00  0.00    +0.000 C 
ATOM      3  C   VAL B   1      14.191  -6.793   6.640  0.00  0.00    +0.000 C 
ATOM      4  O   VAL B   1      15.364  -7.185   6.675  0.00  0.00    +0.000 OA
ATOM      5  CB  VAL B   1      13.845  -5.860   8.999  0.00  0.00    +0.000 C 
ATOM      6  CG1 VAL B   1      13.760  -4.416   8.517  0.00  0.00    +0.000 C 
ATOM      7  CG2 VAL B   1      13.064  -6.027  10.299  0.00  0.00    +0.000 C 
ATOM      8  H   VAL B   1      13.030  -8.802   7.494  0.00  0.00    +0.000 HD
ATOM      9  H   VAL B   1      12.806  -8.397   9.094  0.00  0.00    +0.000 HD
ATOM     10  H   VAL B   1      14.347  -8.505   8.470  0.00  0.00    +0.000 HD
TER 
REMARK  Name = /data/user_data/xianyang/t3-aimnet-affinity-balanced/L2/O14757/pocket.pdb
REMARK                            x       y       z     vdW  Elec       q    Type
REMARK                         _______ _______ _______ _____ _____    ______ ____
ATOM      1  N   ALA C   1      12.363   0.127   4.730  0.00  0.00    +0.000 N 
ATOM      2  CA  ALA C   1      12.627  -1.113   5.438  0.00  0.00    +0.000 C 
ATOM      3  C   ALA C   1      11.253  -1.804   5.561  0.00  0.00    +0.000 C 
ATOM      4  O   ALA C   1      10.301  -1.215   6.089  0.00  0.00    +0.000 OA
ATOM      5  CB  ALA C   1      13.215  -0.832   6.813  0.00  0.00    +0.000 C 
ATOM      6  H   ALA C   1      11.970  -0.082   3.812  0.00  0.00    +0.000 HD
ATOM      7  H   ALA C   1      13.234   0.646   4.617  0.00  0.00    +0.000 HD
ATOM      8  H   ALA C   1      11.700   0.689   5.264  0.00  0.00    +0.000 HD
TER 
REMARK  Name = /data/user_data/xianyang/t3-aimnet-affinity-balanced/L2/O14757/pocket.pdb
REMARK                            x       y       z     vdW  Elec       q    Type
REMARK                         _______ _______ _______ _____ _____    ______ ____
ATOM      1  N   LYS D   1       9.077  -4.704   7.115  0.00  0.00    +0.000 N 
ATOM      2  CA  LYS D   1       8.995  -5.644   8.236  0.00  0.00    +0.000 C 
ATOM      3  C   LYS D   1       7.971  -6.709   7.842  0.00  0.00    +0.000 C 
ATOM      4  O   LYS D   1       6.832  -6.368   7.508  0.00  0.00    +0.000 OA
ATOM      5  CB  LYS D   1       8.587  -4.931   9.534  0.00  0.00    +0.000 C 
ATOM      6  CG  LYS D   1       8.602  -5.851  10.751  0.00  0.00    +0.000 C 
ATOM      7  CD  LYS D   1       8.326  -5.080  12.019  0.00  0.00    +0.000 C 
ATOM      8  CE  LYS D   1       8.532  -5.944  13.221  0.00  0.00    +0.000 C 
ATOM      9  NZ  LYS D   1       8.454  -5.157  14.468  0.00  0.00    +0.000 N 
ATOM     10  H   LYS D   1       9.349  -5.206   6.270  0.00  0.00    +0.000 HD
ATOM     11  H   LYS D   1       9.772  -3.987   7.323  0.00  0.00    +0.000 HD
ATOM     12  H   LYS D   1       8.167  -4.265   6.972  0.00  0.00    +0.000 HD
ATOM     13  H   LYS D   1       9.184  -4.445  14.467  0.00  0.00    +0.000 HD
ATOM     14  H   LYS D   1       8.584  -5.775  15.269  0.00  0.00    +0.000 HD
ATOM     15  H   LYS D   1       7.540  -4.707  14.530  0.00  0.00    +0.000 HD
TER 
REMARK  Name = /data/user_data/xianyang/t3-aimnet-affinity-balanced/L2/O14757/pocket.pdb
REMARK                            x       y       z     vdW  Elec       q    Type
REMARK                         _______ _______ _______ _____ _____    ______ ____
ATOM      1  N   GLU E   1       0.690  -2.963  16.733  0.00  0.00    +0.000 N 
ATOM      2  CA  GLU E   1       1.906  -2.323  16.219  0.00  0.00    +0.000 C 
ATOM      3  C   GLU E   1       1.534  -1.371  15.075  0.00  0.00    +0.000 C 
ATOM      4  O   GLU E   1       2.053  -0.266  15.010  0.00  0.00    +0.000 OA
ATOM      5  CB  GLU E   1       2.919  -3.371  15.726  0.00  0.00    +0.000 C 
ATOM      6  CG  GLU E   1       4.202  -2.759  15.165  0.00  0.00    +0.000 C 
ATOM      7  CD  GLU E   1       5.327  -3.745  14.926  0.00  0.00    +0.000 C 
ATOM      8  OE2 GLU E   1       5.172  -4.920  15.320  0.00  0.00    +0.000 OA
ATOM      9  OE1 GLU E   1       6.374  -3.338  14.374  0.00  0.00    +0.000 OA
ATOM     10  H   GLU E   1       0.038  -2.247  17.052  0.00  0.00    +0.000 HD
ATOM     11  H   GLU E   1       0.931  -3.575  17.513  0.00  0.00    +0.000 HD
ATOM     12  H   GLU E   1       0.256  -3.512  15.992  0.00  0.00    +0.000 HD
TER 
REMARK  Name = /data/user_data/xianyang/t3-aimnet-affinity-balanced/L2/O14757/pocket.pdb
REMARK                            x       y       z     vdW  Elec       q    Type
REMARK                         _______ _______ _______ _____ _____    ______ ____
ATOM      1  N   VAL F   1      11.039   6.351  14.044  0.00  0.00    +0.000 N 
ATOM      2  CA  VAL F   1      11.001   5.732  12.728  0.00  0.00    +0.000 C 
ATOM      3  C   VAL F   1       9.634   6.019  12.080  0.00  0.00    +0.000 C 
ATOM      4  O   VAL F   1       8.586   5.793  12.701  0.00  0.00    +0.000 OA
ATOM      5  CB  VAL F   1      11.312   4.202  12.833  0.00  0.00    +0.000 C 
ATOM      6  CG1 VAL F   1      10.820   3.435  11.592  0.00  0.00    +0.000 C 
ATOM      7  CG2 VAL F   1      12.807   3.967  13.065  0.00  0.00    +0.000 C 
ATOM      8  H   VAL F   1      10.834   7.347  13.958  0.00  0.00    +0.000 HD
ATOM      9  H   VAL F   1      11.966   6.229  14.451  0.00  0.00    +0.000 HD
ATOM     10  H   VAL F   1      10.343   5.912  14.646  0.00  0.00    +0.000 HD
TER 
REMARK  Name = /data/user_data/xianyang/t3-aimnet-affinity-balanced/L2/O14757/pocket.pdb
REMARK                            x       y       z     vdW  Elec       q    Type
REMARK                         _______ _______ _______ _____ _____    ______ ____
ATOM      1  N   LEU G   1       8.366   0.744   6.605  0.00  0.00    +0.000 N 
ATOM      2  CA  LEU G   1       9.006   1.593   7.602  0.00  0.00    +0.000 C 
ATOM      3  C   LEU G   1      10.237   2.327   7.116  0.00  0.00    +0.000 C 
ATOM      4  O   LEU G   1      10.791   1.997   6.067  0.00  0.00    +0.000 OA
ATOM      5  CB  LEU G   1       9.334   0.750   8.854  0.00  0.00    +0.000 C 
ATOM      6  CG  LEU G   1       8.122   0.119   9.569  0.00  0.00    +0.000 C 
ATOM      7  CD1 LEU G   1       8.529  -1.153  10.324  0.00  0.00    +0.000 C 
ATOM      8  CD2 LEU G   1       7.435   1.132  10.485  0.00  0.00    +0.000 C 
ATOM      9  N   GLU G   2      10.657   3.334   7.884  0.00  0.00    +0.000 N 
ATOM     10  CA  GLU G   2      11.820   4.137   7.539  0.00  0.00    +0.000 C 
ATOM     11  C   GLU G   2      13.112   3.317   7.498  0.00  0.00    +0.000 C 
ATOM     12  O   GLU G   2      13.439   2.611   8.464  0.00  0.00    +0.000 OA
ATOM     13  CB  GLU G   2      11.972   5.295   8.539  0.00  0.00    +0.000 C 
ATOM     14  CG  GLU G   2      13.053   6.294   8.167  0.00  0.00    +0.000 C 
ATOM     15  CD  GLU G   2      13.076   7.537   9.029  0.00  0.00    +0.000 C 
ATOM     16  OE1 GLU G   2      13.974   8.382   8.813  0.00  0.00    +0.000 OA
ATOM     17  OE2 GLU G   2      12.210   7.666   9.927  0.00  0.00    +0.000 OA
ATOM     18  N   TYR G   3      13.847   3.450   6.392  0.00  0.00    +0.000 N 
ATOM     19  CA  TYR G   3      15.162   2.864   6.224  0.00  0.00    +0.000 C 
ATOM     20  C   TYR G   3      16.128   3.903   6.764  0.00  0.00    +0.000 C 
ATOM     21  O   TYR G   3      16.209   5.025   6.262  0.00  0.00    +0.000 OA
ATOM     22  CB  TYR G   3      15.478   2.527   4.749  0.00  0.00    +0.000 C 
ATOM     23  CG  TYR G   3      16.919   2.109   4.544  0.00  0.00    +0.000 A 
ATOM     24  CD2 TYR G   3      17.412   0.930   5.101  0.00  0.00    +0.000 A 
ATOM     25  CD1 TYR G   3      17.792   2.892   3.794  0.00  0.00    +0.000 A 
ATOM     26  CE2 TYR G   3      18.744   0.551   4.930  0.00  0.00    +0.000 A 
ATOM     27  CE1 TYR G   3      19.116   2.504   3.587  0.00  0.00    +0.000 A 
ATOM     28  CZ  TYR G   3      19.595   1.346   4.180  0.00  0.00    +0.000 A 
ATOM     29  OH  TYR G   3      20.900   0.964   3.983  0.00  0.00    +0.000 OA
ATOM     30  N   CYS G   4      16.820   3.528   7.821  0.00  0.00    +0.000 N 
ATOM     31  CA  CYS G   4      17.743   4.360   8.576  0.00  0.00    +0.000 C 
ATOM     32  C   CYS G   4      19.116   3.830   8.237  0.00  0.00    +0.000 C 
ATOM     33  O   CYS G   4      19.605   2.901   8.877  0.00  0.00    +0.000 OA
ATOM     34  CB  CYS G   4      17.427   4.232  10.067  0.00  0.00    +0.000 C 
ATOM     35  SG  CYS G   4      15.749   4.754  10.512  0.00  0.00    +0.000 S 
ATOM     36  N   SER G   5      19.714   4.407   7.197  0.00  0.00    +0.000 N 
ATOM     37  CA  SER G   5      20.968   3.973   6.558  0.00  0.00    +0.000 C 
ATOM     38  C   SER G   5      22.195   3.920   7.493  0.00  0.00    +0.000 C 
ATOM     39  O   SER G   5      23.143   3.207   7.189  0.00  0.00    +0.000 OA
ATOM     40  CB  SER G   5      21.260   4.816   5.320  0.00  0.00    +0.000 C 
ATOM     41  OG  SER G   5      21.621   6.146   5.662  0.00  0.00    +0.000 OA
ATOM     42  N   GLY G   6      22.143   4.621   8.623  0.00  0.00    +0.000 N 
ATOM     43  CA  GLY G   6      23.219   4.607   9.612  0.00  0.00    +0.000 C 
ATOM     44  C   GLY G   6      23.217   3.363  10.497  0.00  0.00    +0.000 C 
ATOM     45  O   GLY G   6      24.149   3.155  11.277  0.00  0.00    +0.000 OA
ATOM     46  N   GLY G   7      22.175   2.544  10.381  0.00  0.00    +0.000 N 
ATOM     47  CA  GLY G   7      22.025   1.301  11.127  0.00  0.00    +0.000 C 
ATOM     48  C   GLY G   7      21.701   1.489  12.599  0.00  0.00    +0.000 C 
ATOM     49  O   GLY G   7      21.211   2.540  13.017  0.00  0.00    +0.000 OA
ATOM     50  N   GLU G   8      22.042   0.493  13.406  0.00  0.00    +0.000 N 
ATOM     51  CA  GLU G   8      21.762   0.519  14.838  0.00  0.00    +0.000 C 
ATOM     52  C   GLU G   8      22.787   1.291  15.618  0.00  0.00    +0.000 C 
ATOM     53  O   GLU G   8      23.987   1.191  15.343  0.00  0.00    +0.000 OA
ATOM     54  CB  GLU G   8      21.726  -0.906  15.415  0.00  0.00    +0.000 C 
ATOM     55  CG  GLU G   8      20.729  -1.831  14.756  0.00  0.00    +0.000 C 
ATOM     56  CD  GLU G   8      20.782  -3.236  15.309  0.00  0.00    +0.000 C 
ATOM     57  OE1 GLU G   8      19.857  -4.018  15.010  0.00  0.00    +0.000 OA
ATOM     58  OE2 GLU G   8      21.700  -3.529  16.106  0.00  0.00    +0.000 OA
ATOM     59  H   LEU G   1       8.148   1.298   5.777  0.00  0.00    +0.000 HD
ATOM     60  H   LEU G   1       7.505   0.356   6.991  0.00  0.00    +0.000 HD
ATOM     61  H   LEU G   1       8.997  -0.016   6.350  0.00  0.00    +0.000 HD
ATOM     62  H   GLU G   2      10.164   3.540   8.711  0.00  0.00    +0.000 HD
ATOM     63  H   TYR G   3      13.475   3.976   5.648  0.00  0.00    +0.000 HD
ATOM     64  H   TYR G   3      21.474   1.503   3.475  0.00  0.00    +0.000 HD
ATOM     65  H   CYS G   4      16.701   2.600   8.127  0.00  0.00    +0.000 HD
ATOM     66  H   CYS G   4      15.593   6.073  10.222  0.00  0.00    +0.000 HD
ATOM     67  H   SER G   5      19.275   5.202   6.818  0.00  0.00    +0.000 HD
ATOM     68  H   SER G   5      22.427   6.134   6.202  0.00  0.00    +0.000 HD
ATOM     69  H   GLY G   6      21.347   5.172   8.800  0.00  0.00    +0.000 HD
ATOM     70  H   GLY G   7      21.460   2.793   9.752  0.00  0.00    +0.000 HD
ATOM     71  H   GLU G   8      22.500  -0.291  13.026  0.00  0.00    +0.000 HD
TER 
REMARK  Name = /data/user_data/xianyang/t3-aimnet-affinity-balanced/L2/O14757/pocket.pdb
REMARK                            x       y       z     vdW  Elec       q    Type
REMARK                         _______ _______ _______ _____ _____    ______ ____
ATOM      1  N   GLU H   1      19.797  -1.809  19.945  0.00  0.00    +0.000 N 
ATOM      2  CA  GLU H   1      19.353  -2.549  18.767  0.00  0.00    +0.000 C 
ATOM      3  C   GLU H   1      18.095  -1.893  18.168  0.00  0.00    +0.000 C 
ATOM      4  O   GLU H   1      17.827  -2.048  16.977  0.00  0.00    +0.000 OA
ATOM      5  CB  GLU H   1      19.054  -4.033  19.121  0.00  0.00    +0.000 C 
ATOM      6  CG  GLU H   1      20.267  -4.773  19.684  0.00  0.00    +0.000 C 
ATOM      7  CD  GLU H   1      20.428  -4.773  21.199  0.00  0.00    +0.000 C 
ATOM      8  OE2 GLU H   1      20.124  -3.753  21.859  0.00  0.00    +0.000 OA
ATOM      9  OE1 GLU H   1      20.877  -5.810  21.732  0.00  0.00    +0.000 OA
ATOM     10  N   ASN H   2      17.331  -1.184  19.008  0.00  0.00    +0.000 N 
ATOM     11  CA  ASN H   2      16.066  -0.534  18.629  0.00  0.00    +0.000 C 
ATOM     12  C   ASN H   2      16.191   0.956  18.390  0.00  0.00    +0.000 C 
ATOM     13  O   ASN H   2      15.182   1.621  18.191  0.00  0.00    +0.000 OA
ATOM     14  CB  ASN H   2      14.979  -0.847  19.688  0.00  0.00    +0.000 C 
ATOM     15  CG  ASN H   2      14.418  -2.243  19.515  0.00  0.00    +0.000 C 
ATOM     16  OD1 ASN H   2      14.456  -2.830  18.418  0.00  0.00    +0.000 OA
ATOM     17  ND2 ASN H   2      13.870  -2.805  20.577  0.00  0.00    +0.000 N 
ATOM     18  H   GLU H   1      19.986  -0.841  19.687  0.00  0.00    +0.000 HD
ATOM     19  H   GLU H   1      20.647  -2.235  20.314  0.00  0.00    +0.000 HD
ATOM     20  H   GLU H   1      19.068  -1.835  20.658  0.00  0.00    +0.000 HD
ATOM     21  H   ASN H   2      17.635  -1.091  19.940  0.00  0.00    +0.000 HD
ATOM     22  H   ASN H   2      13.492  -3.712  20.514  0.00  0.00    +0.000 HD
ATOM     23  H   ASN H   2      13.840  -2.317  21.432  0.00  0.00    +0.000 HD
TER 
REMARK  Name = /data/user_data/xianyang/t3-aimnet-affinity-balanced/L2/O14757/pocket.pdb
REMARK                            x       y       z     vdW  Elec       q    Type
REMARK                         _______ _______ _______ _____ _____    ______ ____
ATOM      1  N   LEU I   1      17.796   3.421  15.855  0.00  0.00    +0.000 N 
ATOM      2  CA  LEU I   1      18.419   3.455  14.530  0.00  0.00    +0.000 C 
ATOM      3  C   LEU I   1      18.909   4.839  14.199  0.00  0.00    +0.000 C 
ATOM      4  O   LEU I   1      18.497   5.802  14.840  0.00  0.00    +0.000 OA
ATOM      5  CB  LEU I   1      17.475   2.915  13.448  0.00  0.00    +0.000 C 
ATOM      6  CG  LEU I   1      16.771   1.574  13.765  0.00  0.00    +0.000 C 
ATOM      7  CD1 LEU I   1      15.883   1.147  12.591  0.00  0.00    +0.000 C 
ATOM      8  CD2 LEU I   1      17.793   0.446  14.124  0.00  0.00    +0.000 C 
ATOM      9  H   LEU I   1      17.473   2.474  16.055  0.00  0.00    +0.000 HD
ATOM     10  H   LEU I   1      17.003   4.062  15.874  0.00  0.00    +0.000 HD
ATOM     11  H   LEU I   1      18.478   3.703  16.559  0.00  0.00    +0.000 HD
TER 
REMARK  Name = /data/user_data/xianyang/t3-aimnet-affinity-balanced/L2/O14757/pocket.pdb
REMARK                            x       y       z     vdW  Elec       q    Type
REMARK                         _______ _______ _______ _____ _____    ______ ____
ATOM      1  N   SER J   1      12.784   2.775  17.171  0.00  0.00    +0.000 N 
ATOM      2  CA  SER J   1      12.224   1.765  16.279  0.00  0.00    +0.000 C 
ATOM      3  C   SER J   1      11.541   0.574  16.960  0.00  0.00    +0.000 C 
ATOM      4  O   SER J   1      11.804   0.276  18.113  0.00  0.00    +0.000 OA
ATOM      5  CB  SER J   1      13.345   1.257  15.364  0.00  0.00    +0.000 C 
ATOM      6  OG  SER J   1      13.051   0.006  14.790  0.00  0.00    +0.000 OA
ATOM      7  N   ASP J   2      10.674  -0.094  16.202  0.00  0.00    +0.000 N 
ATOM      8  CA  ASP J   2       9.920  -1.273  16.631  0.00  0.00    +0.000 C 
ATOM      9  C   ASP J   2       8.939  -1.039  17.779  0.00  0.00    +0.000 C 
ATOM     10  O   ASP J   2       9.330  -0.939  18.932  0.00  0.00    +0.000 OA
ATOM     11  CB  ASP J   2      10.881  -2.406  16.981  0.00  0.00    +0.000 C 
ATOM     12  CG  ASP J   2      10.241  -3.764  16.851  0.00  0.00    +0.000 C 
ATOM     13  OD2 ASP J   2       9.159  -3.962  17.420  0.00  0.00    +0.000 OA
ATOM     14  OD1 ASP J   2      10.821  -4.629  16.172  0.00  0.00    +0.000 OA
ATOM     15  N   PHE J   3       7.656  -0.979  17.434  0.00  0.00    +0.000 N 
ATOM     16  CA  PHE J   3       6.605  -0.715  18.397  0.00  0.00    +0.000 C 
ATOM     17  C   PHE J   3       5.806  -1.970  18.689  0.00  0.00    +0.000 C 
ATOM     18  O   PHE J   3       4.684  -1.915  19.168  0.00  0.00    +0.000 OA
ATOM     19  CB  PHE J   3       5.757   0.475  17.958  0.00  0.00    +0.000 C 
ATOM     20  CG  PHE J   3       6.473   1.781  18.113  0.00  0.00    +0.000 A 
ATOM     21  CD1 PHE J   3       7.323   2.239  17.124  0.00  0.00    +0.000 A 
ATOM     22  CD2 PHE J   3       6.351   2.514  19.273  0.00  0.00    +0.000 A 
ATOM     23  CE1 PHE J   3       8.014   3.424  17.280  0.00  0.00    +0.000 A 
ATOM     24  CE2 PHE J   3       7.034   3.700  19.433  0.00  0.00    +0.000 A 
ATOM     25  CZ  PHE J   3       7.870   4.153  18.438  0.00  0.00    +0.000 A 
ATOM     26  N   GLY J   4       6.419  -3.102  18.364  0.00  0.00    +0.000 N 
ATOM     27  CA  GLY J   4       5.827  -4.400  18.572  0.00  0.00    +0.000 C 
ATOM     28  C   GLY J   4       5.451  -4.637  20.022  0.00  0.00    +0.000 C 
ATOM     29  O   GLY J   4       4.470  -5.305  20.297  0.00  0.00    +0.000 OA
ATOM     30  H   SER J   1      13.212   3.518  16.618  0.00  0.00    +0.000 HD
ATOM     31  H   SER J   1      13.491   2.346  17.769  0.00  0.00    +0.000 HD
ATOM     32  H   SER J   1      12.041   3.167  17.750  0.00  0.00    +0.000 HD
ATOM     33  H   SER J   1      12.256   0.082  14.239  0.00  0.00    +0.000 HD
ATOM     34  H   ASP J   2      10.529   0.229  15.284  0.00  0.00    +0.000 HD
ATOM     35  H   PHE J   3       7.411  -1.119  16.491  0.00  0.00    +0.000 HD
ATOM     36  H   GLY J   4       7.317  -3.053  17.963  0.00  0.00    +0.000 HD
TER 
