REMARK  Name = /data/user_data/xianyang/t3-aimnet-affinity-balanced/L3/P51684/pocket.pdb
REMARK                            x       y       z     vdW  Elec       q    Type
REMARK                         _______ _______ _______ _____ _____    ______ ____
ATOM      1  N   GLU A   1      23.669   3.905  -6.014  0.00  0.00    +0.000 N 
ATOM      2  CA  GLU A   1      22.968   4.103  -7.269  0.00  0.00    +0.000 C 
ATOM      3  C   GLU A   1      23.873   3.792  -8.450  0.00  0.00    +0.000 C 
ATOM      4  O   GLU A   1      25.097   3.721  -8.331  0.00  0.00    +0.000 OA
ATOM      5  CB  GLU A   1      22.445   5.535  -7.370  0.00  0.00    +0.000 C 
ATOM      6  CG  GLU A   1      21.410   5.883  -6.322  0.00  0.00    +0.000 C 
ATOM      7  CD  GLU A   1      20.143   5.052  -6.450  0.00  0.00    +0.000 C 
ATOM      8  OE1 GLU A   1      19.776   4.697  -7.587  0.00  0.00    +0.000 OA
ATOM      9  OE2 GLU A   1      19.517   4.767  -5.405  0.00  0.00    +0.000 OA
ATOM     10  H   GLU A   1      24.011   2.945  -5.963  0.00  0.00    +0.000 HD
ATOM     11  H   GLU A   1      23.032   4.080  -5.237  0.00  0.00    +0.000 HD
ATOM     12  H   GLU A   1      24.457   4.550  -5.959  0.00  0.00    +0.000 HD
TER 
REMARK  Name = /data/user_data/xianyang/t3-aimnet-affinity-balanced/L3/P51684/pocket.pdb
REMARK                            x       y       z     vdW  Elec       q    Type
REMARK                         _______ _______ _______ _____ _____    ______ ____
ATOM      1  N   TYR B   1       4.087  15.472  -2.192  0.00  0.00    +0.000 N 
ATOM      2  CA  TYR B   1       4.137  14.815  -0.894  0.00  0.00    +0.000 C 
ATOM      3  C   TYR B   1       3.364  15.596   0.161  0.00  0.00    +0.000 C 
ATOM      4  O   TYR B   1       2.732  15.002   1.038  0.00  0.00    +0.000 OA
ATOM      5  CB  TYR B   1       5.585  14.629  -0.442  0.00  0.00    +0.000 C 
ATOM      6  CG  TYR B   1       6.310  13.503  -1.153  0.00  0.00    +0.000 A 
ATOM      7  CD1 TYR B   1       5.691  12.755  -2.144  0.00  0.00    +0.000 A 
ATOM      8  CD2 TYR B   1       7.620  13.182  -0.821  0.00  0.00    +0.000 A 
ATOM      9  CE1 TYR B   1       6.360  11.726  -2.788  0.00  0.00    +0.000 A 
ATOM     10  CE2 TYR B   1       8.293  12.156  -1.452  0.00  0.00    +0.000 A 
ATOM     11  CZ  TYR B   1       7.659  11.434  -2.436  0.00  0.00    +0.000 A 
ATOM     12  OH  TYR B   1       8.321  10.420  -3.072  0.00  0.00    +0.000 OA
ATOM     13  H   TYR B   1       4.613  14.923  -2.872  0.00  0.00    +0.000 HD
ATOM     14  H   TYR B   1       4.496  16.403  -2.118  0.00  0.00    +0.000 HD
ATOM     15  H   TYR B   1       3.117  15.550  -2.496  0.00  0.00    +0.000 HD
ATOM     16  H   TYR B   1       7.890   9.927  -3.743  0.00  0.00    +0.000 HD
TER 
REMARK  Name = /data/user_data/xianyang/t3-aimnet-affinity-balanced/L3/P51684/pocket.pdb
REMARK                            x       y       z     vdW  Elec       q    Type
REMARK                         _______ _______ _______ _____ _____    ______ ____
ATOM      1  N   PHE C   1       2.834   5.836   7.360  0.00  0.00    +0.000 N 
ATOM      2  CA  PHE C   1       3.644   6.210   6.208  0.00  0.00    +0.000 C 
ATOM      3  C   PHE C   1       3.481   7.687   5.864  0.00  0.00    +0.000 C 
ATOM      4  O   PHE C   1       4.464   8.371   5.556  0.00  0.00    +0.000 OA
ATOM      5  CB  PHE C   1       3.278   5.344   5.005  0.00  0.00    +0.000 C 
ATOM      6  CG  PHE C   1       3.885   5.831   3.720  0.00  0.00    +0.000 A 
ATOM      7  CD2 PHE C   1       5.246   5.714   3.491  0.00  0.00    +0.000 A 
ATOM      8  CD1 PHE C   1       3.093   6.425   2.748  0.00  0.00    +0.000 A 
ATOM      9  CE2 PHE C   1       5.809   6.173   2.313  0.00  0.00    +0.000 A 
ATOM     10  CE1 PHE C   1       3.651   6.885   1.568  0.00  0.00    +0.000 A 
ATOM     11  CZ  PHE C   1       5.011   6.755   1.347  0.00  0.00    +0.000 A 
ATOM     12  H   PHE C   1       2.967   4.845   7.562  0.00  0.00    +0.000 HD
ATOM     13  H   PHE C   1       1.850   6.013   7.156  0.00  0.00    +0.000 HD
ATOM     14  H   PHE C   1       3.118   6.389   8.169  0.00  0.00    +0.000 HD
TER 
REMARK  Name = /data/user_data/xianyang/t3-aimnet-affinity-balanced/L3/P51684/pocket.pdb
REMARK                            x       y       z     vdW  Elec       q    Type
REMARK                         _______ _______ _______ _____ _____    ______ ____
ATOM      1  N   LEU D   1       6.148  11.492   5.176  0.00  0.00    +0.000 N 
ATOM      2  CA  LEU D   1       6.282  12.251   3.944  0.00  0.00    +0.000 C 
ATOM      3  C   LEU D   1       6.871  13.643   4.156  0.00  0.00    +0.000 C 
ATOM      4  O   LEU D   1       7.581  14.132   3.272  0.00  0.00    +0.000 OA
ATOM      5  CB  LEU D   1       4.931  12.348   3.231  0.00  0.00    +0.000 C 
ATOM      6  CG  LEU D   1       4.404  11.050   2.624  0.00  0.00    +0.000 C 
ATOM      7  CD2 LEU D   1       3.046  11.275   1.971  0.00  0.00    +0.000 C 
ATOM      8  CD1 LEU D   1       5.398  10.483   1.625  0.00  0.00    +0.000 C 
ATOM      9  H   LEU D   1       5.751  10.576   4.969  0.00  0.00    +0.000 HD
ATOM     10  H   LEU D   1       5.533  11.992   5.818  0.00  0.00    +0.000 HD
ATOM     11  H   LEU D   1       7.066  11.376   5.605  0.00  0.00    +0.000 HD
TER 
REMARK  Name = /data/user_data/xianyang/t3-aimnet-affinity-balanced/L3/P51684/pocket.pdb
REMARK                            x       y       z     vdW  Elec       q    Type
REMARK                         _______ _______ _______ _____ _____    ______ ____
ATOM      1  N   TRP E   1      10.576  13.369   3.723  0.00  0.00    +0.000 N 
ATOM      2  CA  TRP E   1      10.960  13.187   2.333  0.00  0.00    +0.000 C 
ATOM      3  C   TRP E   1      10.766  14.467   1.532  0.00  0.00    +0.000 C 
ATOM      4  O   TRP E   1      11.548  14.758   0.619  0.00  0.00    +0.000 OA
ATOM      5  CB  TRP E   1      10.162  12.040   1.712  0.00  0.00    +0.000 C 
ATOM      6  CG  TRP E   1      10.387  10.719   2.387  0.00  0.00    +0.000 C 
ATOM      7  CD1 TRP E   1       9.474   9.999   3.102  0.00  0.00    +0.000 C 
ATOM      8  CD2 TRP E   1      11.595   9.963   2.405  0.00  0.00    +0.000 A 
ATOM      9  NE1 TRP E   1      10.045   8.842   3.568  0.00  0.00    +0.000 NA
ATOM     10  CE2 TRP E   1      11.347   8.792   3.159  0.00  0.00    +0.000 A 
ATOM     11  CE3 TRP E   1      12.869  10.163   1.859  0.00  0.00    +0.000 A 
ATOM     12  CZ2 TRP E   1      12.318   7.828   3.371  0.00  0.00    +0.000 A 
ATOM     13  CZ3 TRP E   1      13.831   9.197   2.080  0.00  0.00    +0.000 A 
ATOM     14  CH2 TRP E   1      13.552   8.047   2.825  0.00  0.00    +0.000 A 
ATOM     15  H   TRP E   1      11.114  14.136   4.127  0.00  0.00    +0.000 HD
ATOM     16  H   TRP E   1      10.764  12.512   4.243  0.00  0.00    +0.000 HD
ATOM     17  H   TRP E   1       9.581  13.587   3.775  0.00  0.00    +0.000 HD
TER 
REMARK  Name = /data/user_data/xianyang/t3-aimnet-affinity-balanced/L3/P51684/pocket.pdb
REMARK                            x       y       z     vdW  Elec       q    Type
REMARK                         _______ _______ _______ _____ _____    ______ ____
ATOM      1  N   HIS F   1      13.774  16.233  -0.556  0.00  0.00    +0.000 N 
ATOM      2  CA  HIS F   1      13.706  16.550  -1.976  0.00  0.00    +0.000 C 
ATOM      3  C   HIS F   1      13.834  18.044  -2.229  0.00  0.00    +0.000 C 
ATOM      4  O   HIS F   1      14.428  18.455  -3.230  0.00  0.00    +0.000 OA
ATOM      5  CB  HIS F   1      12.403  16.024  -2.580  0.00  0.00    +0.000 C 
ATOM      6  CG  HIS F   1      12.445  14.572  -2.930  0.00  0.00    +0.000 C 
ATOM      7  ND1 HIS F   1      12.899  14.116  -4.151  0.00  0.00    +0.000 NA
ATOM      8  CD2 HIS F   1      12.085  13.477  -2.224  0.00  0.00    +0.000 C 
ATOM      9  CE1 HIS F   1      12.822  12.802  -4.174  0.00  0.00    +0.000 C 
ATOM     10  NE2 HIS F   1      12.331  12.380  -3.018  0.00  0.00    +0.000 NA
ATOM     11  H   HIS F   1      13.685  15.225  -0.428  0.00  0.00    +0.000 HD
ATOM     12  H   HIS F   1      13.016  16.707  -0.065  0.00  0.00    +0.000 HD
ATOM     13  H   HIS F   1      14.669  16.545  -0.180  0.00  0.00    +0.000 HD
TER 
REMARK  Name = /data/user_data/xianyang/t3-aimnet-affinity-balanced/L3/P51684/pocket.pdb
REMARK                            x       y       z     vdW  Elec       q    Type
REMARK                         _______ _______ _______ _____ _____    ______ ____
ATOM      1  N   LEU G   1      12.478   5.727   8.594  0.00  0.00    +0.000 N 
ATOM      2  CA  LEU G   1      11.524   6.162   7.583  0.00  0.00    +0.000 C 
ATOM      3  C   LEU G   1      11.516   5.233   6.378  0.00  0.00    +0.000 C 
ATOM      4  O   LEU G   1      10.455   4.955   5.807  0.00  0.00    +0.000 OA
ATOM      5  CB  LEU G   1      11.836   7.597   7.152  0.00  0.00    +0.000 C 
ATOM      6  CG  LEU G   1      11.734   8.657   8.246  0.00  0.00    +0.000 C 
ATOM      7  CD1 LEU G   1      11.957  10.047   7.666  0.00  0.00    +0.000 C 
ATOM      8  CD2 LEU G   1      10.401   8.572   8.966  0.00  0.00    +0.000 C 
ATOM      9  N   LYS G   2      12.684   4.737   5.975  0.00  0.00    +0.000 N 
ATOM     10  CA  LYS G   2      12.735   3.767   4.890  0.00  0.00    +0.000 C 
ATOM     11  C   LYS G   2      12.032   2.475   5.287  0.00  0.00    +0.000 C 
ATOM     12  O   LYS G   2      11.329   1.861   4.478  0.00  0.00    +0.000 OA
ATOM     13  CB  LYS G   2      14.183   3.486   4.507  0.00  0.00    +0.000 C 
ATOM     14  CG  LYS G   2      14.906   4.668   3.898  0.00  0.00    +0.000 C 
ATOM     15  CD  LYS G   2      14.885   4.596   2.382  0.00  0.00    +0.000 C 
ATOM     16  CE  LYS G   2      15.780   5.651   1.767  0.00  0.00    +0.000 C 
ATOM     17  NZ  LYS G   2      15.908   5.489   0.298  0.00  0.00    +0.000 N 
ATOM     18  H   LEU G   1      12.263   4.770   8.875  0.00  0.00    +0.000 HD
ATOM     19  H   LEU G   1      12.417   6.342   9.406  0.00  0.00    +0.000 HD
ATOM     20  H   LEU G   1      13.422   5.764   8.209  0.00  0.00    +0.000 HD
ATOM     21  H   LYS G   2      13.517   5.027   6.412  0.00  0.00    +0.000 HD
ATOM     22  H   LYS G   2      14.990   5.585  -0.136  0.00  0.00    +0.000 HD
ATOM     23  H   LYS G   2      16.288   4.566   0.090  0.00  0.00    +0.000 HD
ATOM     24  H   LYS G   2      16.534   6.205  -0.070  0.00  0.00    +0.000 HD
TER 
REMARK  Name = /data/user_data/xianyang/t3-aimnet-affinity-balanced/L3/P51684/pocket.pdb
REMARK                            x       y       z     vdW  Elec       q    Type
REMARK                         _______ _______ _______ _____ _____    ______ ____
ATOM      1  N   TYR H   1       8.247   2.916   5.225  0.00  0.00    +0.000 N 
ATOM      2  CA  TYR H   1       7.751   2.852   3.855  0.00  0.00    +0.000 C 
ATOM      3  C   TYR H   1       7.633   1.409   3.375  0.00  0.00    +0.000 C 
ATOM      4  O   TYR H   1       6.615   1.028   2.782  0.00  0.00    +0.000 OA
ATOM      5  CB  TYR H   1       8.665   3.653   2.925  0.00  0.00    +0.000 C 
ATOM      6  CG  TYR H   1       8.455   3.355   1.459  0.00  0.00    +0.000 A 
ATOM      7  CD2 TYR H   1       7.367   3.875   0.768  0.00  0.00    +0.000 A 
ATOM      8  CD1 TYR H   1       9.352   2.552   0.755  0.00  0.00    +0.000 A 
ATOM      9  CE2 TYR H   1       7.173   3.608  -0.579  0.00  0.00    +0.000 A 
ATOM     10  CE1 TYR H   1       9.166   2.281  -0.591  0.00  0.00    +0.000 A 
ATOM     11  CZ  TYR H   1       8.079   2.813  -1.252  0.00  0.00    +0.000 A 
ATOM     12  OH  TYR H   1       7.893   2.548  -2.589  0.00  0.00    +0.000 OA
ATOM     13  N   ALA H   2       8.650   0.610   3.630  0.00  0.00    +0.000 N 
ATOM     14  CA  ALA H   2       8.605  -0.783   3.196  0.00  0.00    +0.000 C 
ATOM     15  C   ALA H   2       7.533  -1.568   3.947  0.00  0.00    +0.000 C 
ATOM     16  O   ALA H   2       6.832  -2.396   3.356  0.00  0.00    +0.000 OA
ATOM     17  CB  ALA H   2       9.975  -1.439   3.384  0.00  0.00    +0.000 C 
ATOM     18  H   TYR H   1       8.315   3.891   5.517  0.00  0.00    +0.000 HD
ATOM     19  H   TYR H   1       9.169   2.482   5.274  0.00  0.00    +0.000 HD
ATOM     20  H   TYR H   1       7.604   2.420   5.843  0.00  0.00    +0.000 HD
ATOM     21  H   TYR H   1       8.506   2.009  -3.049  0.00  0.00    +0.000 HD
ATOM     22  H   ALA H   2       9.438   0.952   4.112  0.00  0.00    +0.000 HD
TER 
REMARK  Name = /data/user_data/xianyang/t3-aimnet-affinity-balanced/L3/P51684/pocket.pdb
REMARK                            x       y       z     vdW  Elec       q    Type
REMARK                         _______ _______ _______ _____ _____    ______ ____
ATOM      1  N   PHE I   1       4.037  -0.684   2.554  0.00  0.00    +0.000 N 
ATOM      2  CA  PHE I   1       3.711  -1.315   1.279  0.00  0.00    +0.000 C 
ATOM      3  C   PHE I   1       3.455  -2.810   1.448  0.00  0.00    +0.000 C 
ATOM      4  O   PHE I   1       2.471  -3.334   0.925  0.00  0.00    +0.000 OA
ATOM      5  CB  PHE I   1       4.834  -1.077   0.270  0.00  0.00    +0.000 C 
ATOM      6  CG  PHE I   1       4.573  -1.708  -1.066  0.00  0.00    +0.000 A 
ATOM      7  CD1 PHE I   1       3.802  -1.056  -2.017  0.00  0.00    +0.000 A 
ATOM      8  CD2 PHE I   1       5.105  -2.952  -1.375  0.00  0.00    +0.000 A 
ATOM      9  CE1 PHE I   1       3.562  -1.626  -3.253  0.00  0.00    +0.000 A 
ATOM     10  CE2 PHE I   1       4.870  -3.531  -2.611  0.00  0.00    +0.000 A 
ATOM     11  CZ  PHE I   1       4.100  -2.864  -3.549  0.00  0.00    +0.000 A 
ATOM     12  N   ASN I   2       4.324  -3.491   2.165  0.00  0.00    +0.000 N 
ATOM     13  CA  ASN I   2       4.152  -4.926   2.352  0.00  0.00    +0.000 C 
ATOM     14  C   ASN I   2       2.896  -5.234   3.156  0.00  0.00    +0.000 C 
ATOM     15  O   ASN I   2       2.173  -6.187   2.851  0.00  0.00    +0.000 OA
ATOM     16  CB  ASN I   2       5.389  -5.514   3.043  0.00  0.00    +0.000 C 
ATOM     17  CG  ASN I   2       6.615  -5.481   2.157  0.00  0.00    +0.000 C 
ATOM     18  OD1 ASN I   2       6.526  -5.655   0.944  0.00  0.00    +0.000 OA
ATOM     19  ND2 ASN I   2       7.775  -5.246   2.767  0.00  0.00    +0.000 N 
ATOM     20  H   PHE I   1       4.202   0.312   2.408  0.00  0.00    +0.000 HD
ATOM     21  H   PHE I   1       4.876  -1.115   2.942  0.00  0.00    +0.000 HD
ATOM     22  H   PHE I   1       3.260  -0.808   3.203  0.00  0.00    +0.000 HD
ATOM     23  H   ASN I   2       5.091  -3.030   2.575  0.00  0.00    +0.000 HD
ATOM     24  H   ASN I   2       8.608  -5.212   2.244  0.00  0.00    +0.000 HD
ATOM     25  H   ASN I   2       7.799  -5.106   3.741  0.00  0.00    +0.000 HD
TER 
REMARK  Name = /data/user_data/xianyang/t3-aimnet-affinity-balanced/L3/P51684/pocket.pdb
REMARK                            x       y       z     vdW  Elec       q    Type
REMARK                         _______ _______ _______ _____ _____    ______ ____
ATOM      1  N   THR J   1      15.571  -3.564   4.183  0.00  0.00    +0.000 N 
ATOM      2  CA  THR J   1      15.532  -2.112   4.088  0.00  0.00    +0.000 C 
ATOM      3  C   THR J   1      16.175  -1.465   5.312  0.00  0.00    +0.000 C 
ATOM      4  O   THR J   1      16.902  -0.472   5.187  0.00  0.00    +0.000 OA
ATOM      5  CB  THR J   1      14.084  -1.632   3.927  0.00  0.00    +0.000 C 
ATOM      6  OG1 THR J   1      13.526  -2.202   2.737  0.00  0.00    +0.000 OA
ATOM      7  CG2 THR J   1      14.027  -0.119   3.831  0.00  0.00    +0.000 C 
ATOM      8  H   THR J   1      15.136  -3.971   3.355  0.00  0.00    +0.000 HD
ATOM      9  H   THR J   1      15.064  -3.864   5.015  0.00  0.00    +0.000 HD
ATOM     10  H   THR J   1      16.541  -3.875   4.245  0.00  0.00    +0.000 HD
ATOM     11  H   THR J   1      14.042  -1.914   1.968  0.00  0.00    +0.000 HD
TER 
REMARK  Name = /data/user_data/xianyang/t3-aimnet-affinity-balanced/L3/P51684/pocket.pdb
REMARK                            x       y       z     vdW  Elec       q    Type
REMARK                         _______ _______ _______ _____ _____    ______ ____
ATOM      1  N   ASN K   1      19.821   0.422   4.195  0.00  0.00    +0.000 N 
ATOM      2  CA  ASN K   1      19.598   1.848   4.050  0.00  0.00    +0.000 C 
ATOM      3  C   ASN K   1      20.313   2.602   5.159  0.00  0.00    +0.000 C 
ATOM      4  O   ASN K   1      20.254   2.222   6.332  0.00  0.00    +0.000 OA
ATOM      5  CB  ASN K   1      18.106   2.174   4.065  0.00  0.00    +0.000 C 
ATOM      6  CG  ASN K   1      17.423   1.844   2.754  0.00  0.00    +0.000 C 
ATOM      7  OD1 ASN K   1      17.496   2.615   1.802  0.00  0.00    +0.000 OA
ATOM      8  ND2 ASN K   1      16.752   0.710   2.701  0.00  0.00    +0.000 N 
ATOM      9  H   ASN K   1      19.338  -0.075   3.447  0.00  0.00    +0.000 HD
ATOM     10  H   ASN K   1      19.461   0.112   5.098  0.00  0.00    +0.000 HD
ATOM     11  H   ASN K   1      20.821   0.227   4.142  0.00  0.00    +0.000 HD
ATOM     12  H   ASN K   1      16.290   0.450   1.871  0.00  0.00    +0.000 HD
ATOM     13  H   ASN K   1      16.713   0.124   3.491  0.00  0.00    +0.000 HD
TER 
REMARK  Name = /data/user_data/xianyang/t3-aimnet-affinity-balanced/L3/P51684/pocket.pdb
REMARK                            x       y       z     vdW  Elec       q    Type
REMARK                         _______ _______ _______ _____ _____    ______ ____
ATOM      1  N   CYS L   1      19.851   9.546   1.830  0.00  0.00    +0.000 N 
ATOM      2  CA  CYS L   1      19.289   8.443   2.595  0.00  0.00    +0.000 C 
ATOM      3  C   CYS L   1      18.890   7.350   1.615  0.00  0.00    +0.000 C 
ATOM      4  O   CYS L   1      17.753   7.309   1.132  0.00  0.00    +0.000 OA
ATOM      5  CB  CYS L   1      18.094   8.909   3.424  0.00  0.00    +0.000 C 
ATOM      6  SG  CYS L   1      17.223   7.601   4.327  0.00  0.00    +0.000 S 
ATOM      7  N   GLU L   2      19.838   6.488   1.292  0.00  0.00    +0.000 N 
ATOM      8  CA  GLU L   2      19.648   5.457   0.284  0.00  0.00    +0.000 C 
ATOM      9  C   GLU L   2      20.366   4.186   0.707  0.00  0.00    +0.000 C 
ATOM     10  O   GLU L   2      21.239   4.220   1.572  0.00  0.00    +0.000 OA
ATOM     11  CB  GLU L   2      20.172   5.916  -1.078  0.00  0.00    +0.000 C 
ATOM     12  CG  GLU L   2      19.409   7.073  -1.685  0.00  0.00    +0.000 C 
ATOM     13  CD  GLU L   2      20.039   7.593  -2.961  0.00  0.00    +0.000 C 
ATOM     14  OE1 GLU L   2      19.334   8.291  -3.732  0.00  0.00    +0.000 OA
ATOM     15  OE2 GLU L   2      21.228   7.304  -3.203  0.00  0.00    +0.000 OA
ATOM     16  N   PRO L   3      20.003   3.069   0.107  0.00  0.00    +0.000 N 
ATOM     17  CA  PRO L   3      20.709   1.831   0.432  0.00  0.00    +0.000 C 
ATOM     18  C   PRO L   3      22.141   1.857  -0.084  0.00  0.00    +0.000 C 
ATOM     19  O   PRO L   3      22.419   2.357  -1.176  0.00  0.00    +0.000 OA
ATOM     20  CB  PRO L   3      19.878   0.748  -0.267  0.00  0.00    +0.000 C 
ATOM     21  CG  PRO L   3      19.194   1.465  -1.375  0.00  0.00    +0.000 C 
ATOM     22  CD  PRO L   3      18.901   2.834  -0.848  0.00  0.00    +0.000 C 
ATOM     23  H   CYS L   1      20.646   9.212   1.285  0.00  0.00    +0.000 HD
ATOM     24  H   CYS L   1      20.160  10.279   2.468  0.00  0.00    +0.000 HD
ATOM     25  H   CYS L   1      19.141   9.920   1.201  0.00  0.00    +0.000 HD
ATOM     26  H   CYS L   1      16.691   6.716   3.442  0.00  0.00    +0.000 HD
ATOM     27  H   GLU L   2      20.707   6.546   1.752  0.00  0.00    +0.000 HD
TER 
REMARK  Name = /data/user_data/xianyang/t3-aimnet-affinity-balanced/L3/P51684/pocket.pdb
REMARK                            x       y       z     vdW  Elec       q    Type
REMARK                         _______ _______ _______ _____ _____    ______ ____
ATOM      1  N   TYR M   1      25.365  -0.672  -0.691  0.00  0.00    +0.000 N 
ATOM      2  CA  TYR M   1      25.841  -2.041  -0.814  0.00  0.00    +0.000 C 
ATOM      3  C   TYR M   1      27.340  -2.126  -1.050  0.00  0.00    +0.000 C 
ATOM      4  O   TYR M   1      27.859  -3.219  -1.306  0.00  0.00    +0.000 OA
ATOM      5  CB  TYR M   1      25.109  -2.767  -1.942  0.00  0.00    +0.000 C 
ATOM      6  CG  TYR M   1      23.611  -2.838  -1.772  0.00  0.00    +0.000 A 
ATOM      7  CD1 TYR M   1      22.788  -1.858  -2.312  0.00  0.00    +0.000 A 
ATOM      8  CD2 TYR M   1      23.016  -3.881  -1.079  0.00  0.00    +0.000 A 
ATOM      9  CE1 TYR M   1      21.413  -1.917  -2.162  0.00  0.00    +0.000 A 
ATOM     10  CE2 TYR M   1      21.642  -3.950  -0.927  0.00  0.00    +0.000 A 
ATOM     11  CZ  TYR M   1      20.847  -2.965  -1.472  0.00  0.00    +0.000 A 
ATOM     12  OH  TYR M   1      19.482  -3.025  -1.329  0.00  0.00    +0.000 OA
ATOM     13  H   TYR M   1      24.357  -0.675  -0.534  0.00  0.00    +0.000 HD
ATOM     14  H   TYR M   1      25.574  -0.161  -1.549  0.00  0.00    +0.000 HD
ATOM     15  H   TYR M   1      25.830  -0.220   0.096  0.00  0.00    +0.000 HD
ATOM     16  H   TYR M   1      18.942  -2.355  -1.700  0.00  0.00    +0.000 HD
TER 
REMARK  Name = /data/user_data/xianyang/t3-aimnet-affinity-balanced/L3/P51684/pocket.pdb
REMARK                            x       y       z     vdW  Elec       q    Type
REMARK                         _______ _______ _______ _____ _____    ______ ____
ATOM      1  N   MET N   1      18.295  -8.170  -3.367  0.00  0.00    +0.000 N 
ATOM      2  CA  MET N   1      17.372  -7.588  -2.410  0.00  0.00    +0.000 C 
ATOM      3  C   MET N   1      16.182  -6.958  -3.112  0.00  0.00    +0.000 C 
ATOM      4  O   MET N   1      15.042  -7.062  -2.639  0.00  0.00    +0.000 OA
ATOM      5  CB  MET N   1      18.094  -6.550  -1.550  0.00  0.00    +0.000 C 
ATOM      6  CG  MET N   1      19.192  -7.142  -0.685  0.00  0.00    +0.000 C 
ATOM      7  SD  MET N   1      18.557  -8.428   0.426  0.00  0.00    +0.000 S 
ATOM      8  CE  MET N   1      20.088  -9.148   1.006  0.00  0.00    +0.000 C 
ATOM      9  N   LEU N   2      16.419  -6.302  -4.225  0.00  0.00    +0.000 N 
ATOM     10  CA  LEU N   2      15.314  -5.717  -4.970  0.00  0.00    +0.000 C 
ATOM     11  C   LEU N   2      14.410  -6.797  -5.549  0.00  0.00    +0.000 C 
ATOM     12  O   LEU N   2      13.182  -6.656  -5.545  0.00  0.00    +0.000 OA
ATOM     13  CB  LEU N   2      15.860  -4.805  -6.076  0.00  0.00    +0.000 C 
ATOM     14  CG  LEU N   2      14.908  -3.784  -6.689  0.00  0.00    +0.000 C 
ATOM     15  CD2 LEU N   2      15.703  -2.616  -7.253  0.00  0.00    +0.000 C 
ATOM     16  CD1 LEU N   2      14.036  -4.393  -7.760  0.00  0.00    +0.000 C 
ATOM     17  H   MET N   1      17.805  -8.861  -3.936  0.00  0.00    +0.000 HD
ATOM     18  H   MET N   1      19.061  -8.622  -2.868  0.00  0.00    +0.000 HD
ATOM     19  H   MET N   1      18.668  -7.436  -3.970  0.00  0.00    +0.000 HD
ATOM     20  H   LEU N   2      17.342  -6.206  -4.554  0.00  0.00    +0.000 HD
TER 
REMARK  Name = /data/user_data/xianyang/t3-aimnet-affinity-balanced/L3/P51684/pocket.pdb
REMARK                            x       y       z     vdW  Elec       q    Type
REMARK                         _______ _______ _______ _____ _____    ______ ____
ATOM      1  N   LEU O   1      13.951  -9.908  -4.378  0.00  0.00    +0.000 N 
ATOM      2  CA  LEU O   1      13.206 -10.557  -3.311  0.00  0.00    +0.000 C 
ATOM      3  C   LEU O   1      12.075  -9.670  -2.815  0.00  0.00    +0.000 C 
ATOM      4  O   LEU O   1      10.970 -10.154  -2.545  0.00  0.00    +0.000 OA
ATOM      5  CB  LEU O   1      14.145 -10.928  -2.163  0.00  0.00    +0.000 C 
ATOM      6  CG  LEU O   1      15.178 -12.009  -2.456  0.00  0.00    +0.000 C 
ATOM      7  CD2 LEU O   1      16.064 -12.243  -1.236  0.00  0.00    +0.000 C 
ATOM      8  CD1 LEU O   1      14.512 -13.298  -2.900  0.00  0.00    +0.000 C 
ATOM      9  N   GLU O   2      12.348  -8.379  -2.692  0.00  0.00    +0.000 N 
ATOM     10  CA  GLU O   2      11.298  -7.461  -2.288  0.00  0.00    +0.000 C 
ATOM     11  C   GLU O   2      10.180  -7.422  -3.323  0.00  0.00    +0.000 C 
ATOM     12  O   GLU O   2       8.997  -7.335  -2.974  0.00  0.00    +0.000 OA
ATOM     13  CB  GLU O   2      11.871  -6.063  -2.081  0.00  0.00    +0.000 C 
ATOM     14  CG  GLU O   2      12.353  -5.796  -0.670  0.00  0.00    +0.000 C 
ATOM     15  CD  GLU O   2      11.201  -5.600   0.301  0.00  0.00    +0.000 C 
ATOM     16  OE1 GLU O   2      10.080  -5.281  -0.140  0.00  0.00    +0.000 OA
ATOM     17  OE2 GLU O   2      11.427  -5.755   1.521  0.00  0.00    +0.000 OA
ATOM     18  N   LEU O   3      10.532  -7.495  -4.585  0.00  0.00    +0.000 N 
ATOM     19  CA  LEU O   3       9.527  -7.466  -5.642  0.00  0.00    +0.000 C 
ATOM     20  C   LEU O   3       8.704  -8.748  -5.669  0.00  0.00    +0.000 C 
ATOM     21  O   LEU O   3       7.490  -8.706  -5.906  0.00  0.00    +0.000 OA
ATOM     22  CB  LEU O   3      10.199  -7.237  -6.994  0.00  0.00    +0.000 C 
ATOM     23  CG  LEU O   3       9.291  -6.783  -8.137  0.00  0.00    +0.000 C 
ATOM     24  CD2 LEU O   3       8.714  -5.402  -7.845  0.00  0.00    +0.000 C 
ATOM     25  CD1 LEU O   3      10.047  -6.793  -9.450  0.00  0.00    +0.000 C 
ATOM     26  N   LEU O   4       9.336  -9.882  -5.416  0.00  0.00    +0.000 N 
ATOM     27  CA  LEU O   4       8.625 -11.153  -5.449  0.00  0.00    +0.000 C 
ATOM     28  C   LEU O   4       7.678 -11.302  -4.269  0.00  0.00    +0.000 C 
ATOM     29  O   LEU O   4       6.475 -11.504  -4.440  0.00  0.00    +0.000 OA
ATOM     30  CB  LEU O   4       9.621 -12.315  -5.478  0.00  0.00    +0.000 C 
ATOM     31  CG  LEU O   4      10.336 -12.566  -6.801  0.00  0.00    +0.000 C 
ATOM     32  CD2 LEU O   4      11.342 -13.698  -6.645  0.00  0.00    +0.000 C 
ATOM     33  CD1 LEU O   4       9.336 -12.881  -7.901  0.00  0.00    +0.000 C 
ATOM     34  H   LEU O   1      13.315  -9.665  -5.138  0.00  0.00    +0.000 HD
ATOM     35  H   LEU O   1      14.670 -10.543  -4.726  0.00  0.00    +0.000 HD
ATOM     36  H   LEU O   1      14.391  -9.061  -4.019  0.00  0.00    +0.000 HD
ATOM     37  H   GLU O   2      13.256  -8.045  -2.873  0.00  0.00    +0.000 HD
ATOM     38  H   LEU O   3      11.485  -7.570  -4.821  0.00  0.00    +0.000 HD
ATOM     39  H   LEU O   4      10.297  -9.867  -5.203  0.00  0.00    +0.000 HD
TER 
REMARK  Name = /data/user_data/xianyang/t3-aimnet-affinity-balanced/L3/P51684/pocket.pdb
REMARK                            x       y       z     vdW  Elec       q    Type
REMARK                         _______ _______ _______ _____ _____    ______ ____
ATOM      1  N   GLY P   1       6.858  -9.068  -1.991  0.00  0.00    +0.000 N 
ATOM      2  CA  GLY P   1       6.096  -7.895  -1.621  0.00  0.00    +0.000 C 
ATOM      3  C   GLY P   1       5.059  -7.453  -2.632  0.00  0.00    +0.000 C 
ATOM      4  O   GLY P   1       4.171  -6.667  -2.290  0.00  0.00    +0.000 OA
ATOM      5  N   PHE P   2       5.161  -7.954  -3.854  0.00  0.00    +0.000 N 
ATOM      6  CA  PHE P   2       4.235  -7.496  -4.883  0.00  0.00    +0.000 C 
ATOM      7  C   PHE P   2       3.703  -8.630  -5.748  0.00  0.00    +0.000 C 
ATOM      8  O   PHE P   2       2.489  -8.830  -5.814  0.00  0.00    +0.000 OA
ATOM      9  CB  PHE P   2       4.896  -6.425  -5.763  0.00  0.00    +0.000 C 
ATOM     10  CG  PHE P   2       3.945  -5.815  -6.756  0.00  0.00    +0.000 A 
ATOM     11  CD2 PHE P   2       3.046  -4.837  -6.369  0.00  0.00    +0.000 A 
ATOM     12  CD1 PHE P   2       3.959  -6.225  -8.082  0.00  0.00    +0.000 A 
ATOM     13  CE2 PHE P   2       2.172  -4.278  -7.281  0.00  0.00    +0.000 A 
ATOM     14  CE1 PHE P   2       3.081  -5.671  -8.999  0.00  0.00    +0.000 A 
ATOM     15  CZ  PHE P   2       2.192  -4.696  -8.595  0.00  0.00    +0.000 A 
ATOM     16  H   GLY P   1       7.526  -9.286  -1.252  0.00  0.00    +0.000 HD
ATOM     17  H   GLY P   1       7.360  -8.887  -2.861  0.00  0.00    +0.000 HD
ATOM     18  H   GLY P   1       6.225  -9.857  -2.121  0.00  0.00    +0.000 HD
ATOM     19  H   PHE P   2       5.851  -8.624  -4.064  0.00  0.00    +0.000 HD
TER 
REMARK  Name = /data/user_data/xianyang/t3-aimnet-affinity-balanced/L3/P51684/pocket.pdb
REMARK                            x       y       z     vdW  Elec       q    Type
REMARK                         _______ _______ _______ _____ _____    ______ ____
ATOM      1  N   GLN Q   1      -0.040   1.089  -7.879  0.00  0.00    +0.000 N 
ATOM      2  CA  GLN Q   1       1.199   0.373  -7.613  0.00  0.00    +0.000 C 
ATOM      3  C   GLN Q   1       1.812  -0.259  -8.860  0.00  0.00    +0.000 C 
ATOM      4  O   GLN Q   1       3.039  -0.337  -8.959  0.00  0.00    +0.000 OA
ATOM      5  CB  GLN Q   1       0.968  -0.701  -6.555  0.00  0.00    +0.000 C 
ATOM      6  CG  GLN Q   1       0.658  -0.159  -5.180  0.00  0.00    +0.000 C 
ATOM      7  CD  GLN Q   1       1.848   0.552  -4.557  0.00  0.00    +0.000 C 
ATOM      8  OE1 GLN Q   1       3.001   0.297  -4.906  0.00  0.00    +0.000 OA
ATOM      9  NE2 GLN Q   1       1.565   1.454  -3.621  0.00  0.00    +0.000 N 
ATOM     10  H   GLN Q   1       0.126   1.804  -8.587  0.00  0.00    +0.000 HD
ATOM     11  H   GLN Q   1      -0.369   1.531  -7.020  0.00  0.00    +0.000 HD
ATOM     12  H   GLN Q   1      -0.746   0.434  -8.216  0.00  0.00    +0.000 HD
ATOM     13  H   GLN Q   1       0.629   1.627  -3.372  0.00  0.00    +0.000 HD
ATOM     14  H   GLN Q   1       2.292   1.948  -3.178  0.00  0.00    +0.000 HD
TER 
REMARK  Name = /data/user_data/xianyang/t3-aimnet-affinity-balanced/L3/P51684/pocket.pdb
REMARK                            x       y       z     vdW  Elec       q    Type
REMARK                         _______ _______ _______ _____ _____    ______ ____
ATOM      1  N   HIS R   1       4.392   1.947 -10.899  0.00  0.00    +0.000 N 
ATOM      2  CA  HIS R   1       5.654   2.118 -10.196  0.00  0.00    +0.000 C 
ATOM      3  C   HIS R   1       6.477   0.836 -10.202  0.00  0.00    +0.000 C 
ATOM      4  O   HIS R   1       7.696   0.871 -10.378  0.00  0.00    +0.000 OA
ATOM      5  CB  HIS R   1       5.396   2.583  -8.768  0.00  0.00    +0.000 C 
ATOM      6  CG  HIS R   1       6.643   2.676  -7.941  0.00  0.00    +0.000 A 
ATOM      7  ND1 HIS R   1       6.972   1.717  -7.008  0.00  0.00    +0.000 N 
ATOM      8  CD2 HIS R   1       7.623   3.605  -7.898  0.00  0.00    +0.000 A 
ATOM      9  CE1 HIS R   1       8.116   2.055  -6.425  0.00  0.00    +0.000 A 
ATOM     10  NE2 HIS R   1       8.528   3.200  -6.947  0.00  0.00    +0.000 NA
ATOM     11  N   ASN R   2       5.832  -0.299 -10.002  0.00  0.00    +0.000 N 
ATOM     12  CA  ASN R   2       6.558  -1.561  -9.981  0.00  0.00    +0.000 C 
ATOM     13  C   ASN R   2       7.054  -1.953 -11.365  0.00  0.00    +0.000 C 
ATOM     14  O   ASN R   2       8.093  -2.608 -11.486  0.00  0.00    +0.000 OA
ATOM     15  CB  ASN R   2       5.675  -2.663  -9.397  0.00  0.00    +0.000 C 
ATOM     16  CG  ASN R   2       5.534  -2.545  -7.899  0.00  0.00    +0.000 C 
ATOM     17  OD1 ASN R   2       4.603  -1.900  -7.404  0.00  0.00    +0.000 OA
ATOM     18  ND2 ASN R   2       6.455  -3.155  -7.175  0.00  0.00    +0.000 N 
ATOM     19  H   HIS R   1       4.574   1.636 -11.853  0.00  0.00    +0.000 HD
ATOM     20  H   HIS R   1       3.892   2.836 -10.921  0.00  0.00    +0.000 HD
ATOM     21  H   HIS R   1       3.826   1.250 -10.416  0.00  0.00    +0.000 HD
ATOM     22  H   HIS R   1       6.444   0.911  -6.806  0.00  0.00    +0.000 HD
ATOM     23  H   ASN R   2       4.857  -0.292  -9.867  0.00  0.00    +0.000 HD
ATOM     24  H   ASN R   2       7.177  -3.657  -7.618  0.00  0.00    +0.000 HD
ATOM     25  H   ASN R   2       6.419  -3.108  -6.192  0.00  0.00    +0.000 HD
TER 
REMARK  Name = /data/user_data/xianyang/t3-aimnet-affinity-balanced/L3/P51684/pocket.pdb
REMARK                            x       y       z     vdW  Elec       q    Type
REMARK                         _______ _______ _______ _____ _____    ______ ____
ATOM      1  N   LEU S   1      10.137   0.069 -11.806  0.00  0.00    +0.000 N 
ATOM      2  CA  LEU S   1      11.175  -0.508 -10.960  0.00  0.00    +0.000 C 
ATOM      3  C   LEU S   1      11.719  -1.797 -11.555  0.00  0.00    +0.000 C 
ATOM      4  O   LEU S   1      12.918  -2.071 -11.467  0.00  0.00    +0.000 OA
ATOM      5  CB  LEU S   1      10.626  -0.761  -9.557  0.00  0.00    +0.000 C 
ATOM      6  CG  LEU S   1      11.614  -1.289  -8.521  0.00  0.00    +0.000 C 
ATOM      7  CD1 LEU S   1      12.712  -0.264  -8.265  0.00  0.00    +0.000 C 
ATOM      8  CD2 LEU S   1      10.890  -1.643  -7.238  0.00  0.00    +0.000 C 
ATOM      9  H   LEU S   1      10.512   0.234 -12.740  0.00  0.00    +0.000 HD
ATOM     10  H   LEU S   1       9.823   0.953 -11.404  0.00  0.00    +0.000 HD
ATOM     11  H   LEU S   1       9.349  -0.576 -11.866  0.00  0.00    +0.000 HD
TER 
REMARK  Name = /data/user_data/xianyang/t3-aimnet-affinity-balanced/L3/P51684/pocket.pdb
REMARK                            x       y       z     vdW  Elec       q    Type
REMARK                         _______ _______ _______ _____ _____    ______ ____
ATOM      1  N   LYS T   1      10.029   7.362 -13.103  0.00  0.00    +0.000 N 
ATOM      2  CA  LYS T   1      10.105   6.781 -11.772  0.00  0.00    +0.000 C 
ATOM      3  C   LYS T   1       9.626   7.761 -10.712  0.00  0.00    +0.000 C 
ATOM      4  O   LYS T   1       8.980   7.362  -9.746  0.00  0.00    +0.000 OA
ATOM      5  CB  LYS T   1      11.536   6.331 -11.484  0.00  0.00    +0.000 C 
ATOM      6  CG  LYS T   1      11.698   5.544 -10.196  0.00  0.00    +0.000 C 
ATOM      7  CD  LYS T   1      13.112   5.012 -10.057  0.00  0.00    +0.000 C 
ATOM      8  CE  LYS T   1      13.298   4.202  -8.790  0.00  0.00    +0.000 C 
ATOM      9  NZ  LYS T   1      14.682   3.670  -8.677  0.00  0.00    +0.000 N 
ATOM     10  H   LYS T   1      10.356   6.682 -13.790  0.00  0.00    +0.000 HD
ATOM     11  H   LYS T   1      10.615   8.196 -13.144  0.00  0.00    +0.000 HD
ATOM     12  H   LYS T   1       9.063   7.615 -13.309  0.00  0.00    +0.000 HD
ATOM     13  H   LYS T   1      14.875   3.054  -9.467  0.00  0.00    +0.000 HD
ATOM     14  H   LYS T   1      14.775   3.146  -7.807  0.00  0.00    +0.000 HD
ATOM     15  H   LYS T   1      15.345   4.445  -8.680  0.00  0.00    +0.000 HD
TER 
REMARK  Name = /data/user_data/xianyang/t3-aimnet-affinity-balanced/L3/P51684/pocket.pdb
REMARK                            x       y       z     vdW  Elec       q    Type
REMARK                         _______ _______ _______ _____ _____    ______ ____
ATOM      1  N   GLU U   1       6.241   7.022  -8.630  0.00  0.00    +0.000 N 
ATOM      2  CA  GLU U   1       6.387   6.923  -7.186  0.00  0.00    +0.000 C 
ATOM      3  C   GLU U   1       5.336   7.767  -6.473  0.00  0.00    +0.000 C 
ATOM      4  O   GLU U   1       4.726   7.321  -5.497  0.00  0.00    +0.000 OA
ATOM      5  CB  GLU U   1       7.793   7.353  -6.764  0.00  0.00    +0.000 C 
ATOM      6  CG  GLU U   1       8.068   7.184  -5.280  0.00  0.00    +0.000 C 
ATOM      7  CD  GLU U   1       9.431   7.712  -4.879  0.00  0.00    +0.000 C 
ATOM      8  OE1 GLU U   1       9.807   8.795  -5.370  0.00  0.00    +0.000 OA
ATOM      9  OE2 GLU U   1      10.120   7.053  -4.083  0.00  0.00    +0.000 OA
ATOM     10  H   GLU U   1       6.953   6.450  -9.084  0.00  0.00    +0.000 HD
ATOM     11  H   GLU U   1       6.352   7.994  -8.917  0.00  0.00    +0.000 HD
ATOM     12  H   GLU U   1       5.315   6.691  -8.902  0.00  0.00    +0.000 HD
TER 
REMARK  Name = /data/user_data/xianyang/t3-aimnet-affinity-balanced/L3/P51684/pocket.pdb
REMARK                            x       y       z     vdW  Elec       q    Type
REMARK                         _______ _______ _______ _____ _____    ______ ____
ATOM      1  N   PHE V   1       2.039   6.504  -4.089  0.00  0.00    +0.000 N 
ATOM      2  CA  PHE V   1       1.697   7.002  -2.767  0.00  0.00    +0.000 C 
ATOM      3  C   PHE V   1       0.284   7.566  -2.696  0.00  0.00    +0.000 C 
ATOM      4  O   PHE V   1      -0.211   7.848  -1.598  0.00  0.00    +0.000 OA
ATOM      5  CB  PHE V   1       2.692   8.077  -2.328  0.00  0.00    +0.000 C 
ATOM      6  CG  PHE V   1       4.096   7.556  -2.159  0.00  0.00    +0.000 A 
ATOM      7  CD1 PHE V   1       4.355   6.197  -2.087  0.00  0.00    +0.000 A 
ATOM      8  CD2 PHE V   1       5.167   8.436  -2.074  0.00  0.00    +0.000 A 
ATOM      9  CE1 PHE V   1       5.646   5.725  -1.941  0.00  0.00    +0.000 A 
ATOM     10  CE2 PHE V   1       6.452   7.975  -1.923  0.00  0.00    +0.000 A 
ATOM     11  CZ  PHE V   1       6.695   6.619  -1.857  0.00  0.00    +0.000 A 
ATOM     12  H   PHE V   1       1.367   5.789  -4.367  0.00  0.00    +0.000 HD
ATOM     13  H   PHE V   1       2.976   6.101  -4.069  0.00  0.00    +0.000 HD
ATOM     14  H   PHE V   1       2.014   7.273  -4.759  0.00  0.00    +0.000 HD
TER 
