REMARK  Name = /data/user_data/xianyang/t3-aimnet-affinity-balanced/L1/P50053/pocket.pdb
REMARK                            x       y       z     vdW  Elec       q    Type
REMARK                         _______ _______ _______ _____ _____    ______ ____
ATOM      1  N   ARG A   1      -8.730   3.064  27.547  0.00  0.00    +0.000 N 
ATOM      2  CA  ARG A   1      -8.463   4.400  28.025  0.00  0.00    +0.000 C 
ATOM      3  C   ARG A   1      -9.662   5.244  27.658  0.00  0.00    +0.000 C 
ATOM      4  O   ARG A   1     -10.160   5.107  26.549  0.00  0.00    +0.000 OA
ATOM      5  CB  ARG A   1      -7.104   4.909  27.445  0.00  0.00    +0.000 C 
ATOM      6  CG  ARG A   1      -7.124   6.157  26.561  0.00  0.00    +0.000 C 
ATOM      7  CD  ARG A   1      -7.224   5.718  25.143  0.00  0.00    +0.000 C 
ATOM      8  NE  ARG A   1      -7.428   6.787  24.166  0.00  0.00    +0.000 N 
ATOM      9  CZ  ARG A   1      -8.616   7.233  23.778  0.00  0.00    +0.000 C 
ATOM     10  NH2 ARG A   1      -9.717   6.825  24.391  0.00  0.00    +0.000 N 
ATOM     11  NH1 ARG A   1      -8.707   8.146  22.825  0.00  0.00    +0.000 N 
ATOM     12  H   ARG A   1      -7.942   2.458  27.775  0.00  0.00    +0.000 HD
ATOM     13  H   ARG A   1      -8.862   3.085  26.536  0.00  0.00    +0.000 HD
ATOM     14  H   ARG A   1      -9.575   2.706  27.993  0.00  0.00    +0.000 HD
ATOM     15  H   ARG A   1      -6.629   7.204  23.769  0.00  0.00    +0.000 HD
ATOM     16  H   ARG A   1     -10.596   7.159  24.099  0.00  0.00    +0.000 HD
ATOM     17  H   ARG A   1      -9.657   6.187  25.139  0.00  0.00    +0.000 HD
ATOM     18  H   ARG A   1      -7.896   8.457  22.362  0.00  0.00    +0.000 HD
ATOM     19  H   ARG A   1      -9.586   8.514  22.579  0.00  0.00    +0.000 HD
TER 
REMARK  Name = /data/user_data/xianyang/t3-aimnet-affinity-balanced/L1/P50053/pocket.pdb
REMARK                            x       y       z     vdW  Elec       q    Type
REMARK                         _______ _______ _______ _____ _____    ______ ____
ATOM      1  N   ILE B   1     -10.890   9.402  28.033  0.00  0.00    +0.000 N 
ATOM      2  CA  ILE B   1     -10.354  10.737  28.234  0.00  0.00    +0.000 C 
ATOM      3  C   ILE B   1     -11.420  11.807  28.316  0.00  0.00    +0.000 C 
ATOM      4  O   ILE B   1     -12.190  11.978  27.375  0.00  0.00    +0.000 OA
ATOM      5  CB  ILE B   1      -9.328  11.063  27.108  0.00  0.00    +0.000 C 
ATOM      6  CG1 ILE B   1      -8.196  10.013  27.054  0.00  0.00    +0.000 C 
ATOM      7  CG2 ILE B   1      -8.764  12.500  27.236  0.00  0.00    +0.000 C 
ATOM      8  CD1 ILE B   1      -7.430   9.970  25.730  0.00  0.00    +0.000 C 
ATOM      9  H   ILE B   1     -10.123   8.731  27.987  0.00  0.00    +0.000 HD
ATOM     10  H   ILE B   1     -11.418   9.375  27.161  0.00  0.00    +0.000 HD
ATOM     11  H   ILE B   1     -11.505   9.162  28.810  0.00  0.00    +0.000 HD
TER 
REMARK  Name = /data/user_data/xianyang/t3-aimnet-affinity-balanced/L1/P50053/pocket.pdb
REMARK                            x       y       z     vdW  Elec       q    Type
REMARK                         _______ _______ _______ _____ _____    ______ ____
ATOM      1  N   CYS C   1      -4.486   3.914   7.255  0.00  0.00    +0.000 N 
ATOM      2  CA  CYS C   1      -5.561   3.756   8.230  0.00  0.00    +0.000 C 
ATOM      3  C   CYS C   1      -5.332   2.560   9.151  0.00  0.00    +0.000 C 
ATOM      4  O   CYS C   1      -5.411   1.414   8.700  0.00  0.00    +0.000 OA
ATOM      5  CB  CYS C   1      -6.937   3.711   7.569  0.00  0.00    +0.000 C 
ATOM      6  SG  CYS C   1      -8.319   3.668   8.741  0.00  0.00    +0.000 S 
ATOM      7  N   ALA C   2      -5.017   2.851  10.433  0.00  0.00    +0.000 N 
ATOM      8  CA  ALA C   2      -4.844   1.899  11.525  0.00  0.00    +0.000 C 
ATOM      9  C   ALA C   2      -6.240   1.600  12.092  0.00  0.00    +0.000 C 
ATOM     10  O   ALA C   2      -7.005   2.520  12.349  0.00  0.00    +0.000 OA
ATOM     11  CB  ALA C   2      -3.938   2.482  12.605  0.00  0.00    +0.000 C 
ATOM     12  N   TRP C   3      -6.588   0.319  12.229  0.00  0.00    +0.000 N 
ATOM     13  CA  TRP C   3      -7.891  -0.120  12.725  0.00  0.00    +0.000 C 
ATOM     14  C   TRP C   3      -7.727  -0.900  14.038  0.00  0.00    +0.000 C 
ATOM     15  O   TRP C   3      -8.268  -1.991  14.195  0.00  0.00    +0.000 OA
ATOM     16  CB  TRP C   3      -8.635  -0.922  11.646  0.00  0.00    +0.000 C 
ATOM     17  CG  TRP C   3     -10.125  -0.829  11.730  0.00  0.00    +0.000 C 
ATOM     18  CD1 TRP C   3     -10.970  -1.704  12.353  0.00  0.00    +0.000 C 
ATOM     19  CD2 TRP C   3     -10.962   0.148  11.085  0.00  0.00    +0.000 A 
ATOM     20  NE1 TRP C   3     -12.278  -1.324  12.150  0.00  0.00    +0.000 NA
ATOM     21  CE2 TRP C   3     -12.304  -0.201  11.362  0.00  0.00    +0.000 A 
ATOM     22  CE3 TRP C   3     -10.706   1.284  10.295  0.00  0.00    +0.000 A 
ATOM     23  CZ2 TRP C   3     -13.386   0.528  10.857  0.00  0.00    +0.000 A 
ATOM     24  CZ3 TRP C   3     -11.778   2.008   9.795  0.00  0.00    +0.000 A 
ATOM     25  CH2 TRP C   3     -13.101   1.634  10.083  0.00  0.00    +0.000 A 
ATOM     26  N   ALA C   4      -7.012  -0.284  14.998  0.00  0.00    +0.000 N 
ATOM     27  CA  ALA C   4      -6.709  -0.776  16.342  0.00  0.00    +0.000 C 
ATOM     28  C   ALA C   4      -6.119  -2.206  16.313  0.00  0.00    +0.000 C 
ATOM     29  O   ALA C   4      -5.184  -2.426  15.555  0.00  0.00    +0.000 OA
ATOM     30  CB  ALA C   4      -7.933  -0.646  17.258  0.00  0.00    +0.000 C 
ATOM     31  N   GLU C   5      -6.672  -3.165  17.062  0.00  0.00    +0.000 N 
ATOM     32  CA  GLU C   5      -6.206  -4.554  17.158  0.00  0.00    +0.000 C 
ATOM     33  C   GLU C   5      -6.440  -5.373  15.895  0.00  0.00    +0.000 C 
ATOM     34  O   GLU C   5      -6.018  -6.540  15.831  0.00  0.00    +0.000 OA
ATOM     35  CB  GLU C   5      -6.773  -5.283  18.417  0.00  0.00    +0.000 C 
ATOM     36  CG  GLU C   5      -8.272  -5.186  18.667  0.00  0.00    +0.000 C 
ATOM     37  CD  GLU C   5      -8.832  -3.808  18.985  0.00  0.00    +0.000 C 
ATOM     38  OE1 GLU C   5      -9.737  -3.382  18.233  0.00  0.00    +0.000 OA
ATOM     39  OE2 GLU C   5      -8.369  -3.148  19.949  0.00  0.00    +0.000 OA
ATOM     40  N   GLU C   6      -7.055  -4.757  14.875  0.00  0.00    +0.000 N 
ATOM     41  CA  GLU C   6      -7.252  -5.386  13.567  0.00  0.00    +0.000 C 
ATOM     42  C   GLU C   6      -6.125  -5.016  12.561  0.00  0.00    +0.000 C 
ATOM     43  O   GLU C   6      -6.157  -5.410  11.390  0.00  0.00    +0.000 OA
ATOM     44  CB  GLU C   6      -8.646  -5.098  13.019  0.00  0.00    +0.000 C 
ATOM     45  CG  GLU C   6      -9.734  -5.892  13.726  0.00  0.00    +0.000 C 
ATOM     46  CD  GLU C   6     -11.127  -5.587  13.224  0.00  0.00    +0.000 C 
ATOM     47  OE1 GLU C   6     -11.261  -5.144  12.058  0.00  0.00    +0.000 OA
ATOM     48  OE2 GLU C   6     -12.089  -5.796  13.998  0.00  0.00    +0.000 OA
ATOM     49  N   GLY C   7      -5.109  -4.321  13.057  0.00  0.00    +0.000 N 
ATOM     50  CA  GLY C   7      -3.959  -3.946  12.252  0.00  0.00    +0.000 C 
ATOM     51  C   GLY C   7      -4.184  -2.729  11.393  0.00  0.00    +0.000 C 
ATOM     52  O   GLY C   7      -5.224  -2.066  11.469  0.00  0.00    +0.000 OA
ATOM     53  N   ALA C   8      -3.197  -2.419  10.583  0.00  0.00    +0.000 N 
ATOM     54  CA  ALA C   8      -3.225  -1.223   9.763  0.00  0.00    +0.000 C 
ATOM     55  C   ALA C   8      -3.046  -1.500   8.293  0.00  0.00    +0.000 C 
ATOM     56  O   ALA C   8      -2.426  -2.489   7.903  0.00  0.00    +0.000 OA
ATOM     57  CB  ALA C   8      -2.163  -0.268  10.255  0.00  0.00    +0.000 C 
ATOM     58  H   CYS C   1      -4.680   4.722   6.663  0.00  0.00    +0.000 HD
ATOM     59  H   CYS C   1      -4.425   3.076   6.677  0.00  0.00    +0.000 HD
ATOM     60  H   CYS C   1      -3.602   4.055   7.744  0.00  0.00    +0.000 HD
ATOM     61  H   CYS C   1      -8.243   2.535   9.490  0.00  0.00    +0.000 HD
ATOM     62  H   ALA C   2      -4.892   3.803  10.652  0.00  0.00    +0.000 HD
ATOM     63  H   TRP C   3      -5.929  -0.370  11.982  0.00  0.00    +0.000 HD
ATOM     64  H   ALA C   4      -6.650   0.602  14.768  0.00  0.00    +0.000 HD
ATOM     65  H   GLU C   5      -7.461  -2.918  17.596  0.00  0.00    +0.000 HD
ATOM     66  H   GLU C   6      -7.389  -3.841  15.011  0.00  0.00    +0.000 HD
ATOM     67  H   GLY C   7      -5.135  -4.050  14.003  0.00  0.00    +0.000 HD
ATOM     68  H   ALA C   8      -2.416  -3.016  10.531  0.00  0.00    +0.000 HD
TER 
REMARK  Name = /data/user_data/xianyang/t3-aimnet-affinity-balanced/L1/P50053/pocket.pdb
REMARK                            x       y       z     vdW  Elec       q    Type
REMARK                         _______ _______ _______ _____ _____    ______ ____
ATOM      1  N   SER D   1      -0.858  -4.791   7.531  0.00  0.00    +0.000 N 
ATOM      2  CA  SER D   1      -0.035  -5.362   8.594  0.00  0.00    +0.000 C 
ATOM      3  C   SER D   1      -0.956  -5.773   9.707  0.00  0.00    +0.000 C 
ATOM      4  O   SER D   1      -1.807  -4.967  10.094  0.00  0.00    +0.000 OA
ATOM      5  CB  SER D   1       0.961  -4.363   9.164  0.00  0.00    +0.000 C 
ATOM      6  OG  SER D   1       1.502  -4.945  10.344  0.00  0.00    +0.000 OA
ATOM      7  N   ASP D   2      -0.759  -6.981  10.270  0.00  0.00    +0.000 N 
ATOM      8  CA  ASP D   2      -1.519  -7.383  11.443  0.00  0.00    +0.000 C 
ATOM      9  C   ASP D   2      -1.014  -6.575  12.606  0.00  0.00    +0.000 C 
ATOM     10  O   ASP D   2       0.129  -6.083  12.558  0.00  0.00    +0.000 OA
ATOM     11  CB  ASP D   2      -1.312  -8.875  11.758  0.00  0.00    +0.000 C 
ATOM     12  CG  ASP D   2      -2.318  -9.761  11.087  0.00  0.00    +0.000 C 
ATOM     13  OD1 ASP D   2      -3.087  -9.265  10.280  0.00  0.00    +0.000 OA
ATOM     14  OD2 ASP D   2      -2.366 -10.946  11.410  0.00  0.00    +0.000 OA
ATOM     15  N   ALA D   3      -1.852  -6.439  13.654  0.00  0.00    +0.000 N 
ATOM     16  CA  ALA D   3      -1.450  -5.806  14.903  0.00  0.00    +0.000 C 
ATOM     17  C   ALA D   3      -0.442  -6.741  15.642  0.00  0.00    +0.000 C 
ATOM     18  O   ALA D   3      -0.348  -7.959  15.358  0.00  0.00    +0.000 OA
ATOM     19  CB  ALA D   3      -2.671  -5.546  15.761  0.00  0.00    +0.000 C 
ATOM     20  N   PHE D   4       0.310  -6.170  16.588  0.00  0.00    +0.000 N 
ATOM     21  CA  PHE D   4       1.194  -6.920  17.460  0.00  0.00    +0.000 C 
ATOM     22  C   PHE D   4       0.636  -6.809  18.912  0.00  0.00    +0.000 C 
ATOM     23  O   PHE D   4       1.292  -6.214  19.784  0.00  0.00    +0.000 OA
ATOM     24  CB  PHE D   4       2.634  -6.420  17.357  0.00  0.00    +0.000 C 
ATOM     25  CG  PHE D   4       3.366  -6.681  16.061  0.00  0.00    +0.000 A 
ATOM     26  CD1 PHE D   4       2.989  -6.034  14.886  0.00  0.00    +0.000 A 
ATOM     27  CD2 PHE D   4       4.531  -7.444  16.048  0.00  0.00    +0.000 A 
ATOM     28  CE1 PHE D   4       3.722  -6.194  13.716  0.00  0.00    +0.000 A 
ATOM     29  CE2 PHE D   4       5.276  -7.589  14.879  0.00  0.00    +0.000 A 
ATOM     30  CZ  PHE D   4       4.866  -6.960  13.723  0.00  0.00    +0.000 A 
ATOM     31  N   PRO D   5      -0.579  -7.343  19.220  0.00  0.00    +0.000 N 
ATOM     32  CA  PRO D   5      -1.104  -7.158  20.587  0.00  0.00    +0.000 C 
ATOM     33  C   PRO D   5      -0.230  -7.780  21.658  0.00  0.00    +0.000 C 
ATOM     34  O   PRO D   5       0.266  -8.892  21.473  0.00  0.00    +0.000 OA
ATOM     35  CB  PRO D   5      -2.463  -7.866  20.549  0.00  0.00    +0.000 C 
ATOM     36  CG  PRO D   5      -2.371  -8.817  19.450  0.00  0.00    +0.000 C 
ATOM     37  CD  PRO D   5      -1.530  -8.136  18.413  0.00  0.00    +0.000 C 
ATOM     38  N   PRO D   6      -0.096  -7.139  22.826  0.00  0.00    +0.000 N 
ATOM     39  CA  PRO D   6       0.633  -7.800  23.909  0.00  0.00    +0.000 C 
ATOM     40  C   PRO D   6      -0.258  -8.891  24.554  0.00  0.00    +0.000 C 
ATOM     41  O   PRO D   6      -1.501  -8.789  24.487  0.00  0.00    +0.000 OA
ATOM     42  CB  PRO D   6       0.943  -6.653  24.850  0.00  0.00    +0.000 C 
ATOM     43  CG  PRO D   6      -0.194  -5.713  24.639  0.00  0.00    +0.000 C 
ATOM     44  CD  PRO D   6      -0.643  -5.830  23.239  0.00  0.00    +0.000 C 
ATOM     45  H   SER D   1      -0.260  -4.501   6.757  0.00  0.00    +0.000 HD
ATOM     46  H   SER D   1      -1.365  -3.982   7.891  0.00  0.00    +0.000 HD
ATOM     47  H   SER D   1      -1.523  -5.491   7.203  0.00  0.00    +0.000 HD
ATOM     48  H   SER D   1       0.785  -5.133  10.970  0.00  0.00    +0.000 HD
ATOM     49  H   ASP D   2      -0.095  -7.597   9.884  0.00  0.00    +0.000 HD
ATOM     50  H   ALA D   3      -2.772  -6.781  13.572  0.00  0.00    +0.000 HD
ATOM     51  H   PHE D   4       0.262  -5.193  16.698  0.00  0.00    +0.000 HD
TER 
REMARK  Name = /data/user_data/xianyang/t3-aimnet-affinity-balanced/L1/P50053/pocket.pdb
REMARK                            x       y       z     vdW  Elec       q    Type
REMARK                         _______ _______ _______ _____ _____    ______ ____
ATOM      1  N   VAL E   1      -2.889  -6.495  27.708  0.00  0.00    +0.000 N 
ATOM      2  CA  VAL E   1      -3.045  -5.102  27.341  0.00  0.00    +0.000 C 
ATOM      3  C   VAL E   1      -3.287  -4.315  28.656  0.00  0.00    +0.000 C 
ATOM      4  O   VAL E   1      -4.267  -4.567  29.358  0.00  0.00    +0.000 OA
ATOM      5  CB  VAL E   1      -4.146  -4.875  26.278  0.00  0.00    +0.000 C 
ATOM      6  CG2 VAL E   1      -4.108  -3.431  25.781  0.00  0.00    +0.000 C 
ATOM      7  CG1 VAL E   1      -3.984  -5.838  25.109  0.00  0.00    +0.000 C 
ATOM      8  H   VAL E   1      -2.727  -7.052  26.869  0.00  0.00    +0.000 HD
ATOM      9  H   VAL E   1      -3.736  -6.821  28.174  0.00  0.00    +0.000 HD
ATOM     10  H   VAL E   1      -2.094  -6.593  28.340  0.00  0.00    +0.000 HD
TER 
REMARK  Name = /data/user_data/xianyang/t3-aimnet-affinity-balanced/L1/P50053/pocket.pdb
REMARK                            x       y       z     vdW  Elec       q    Type
REMARK                         _______ _______ _______ _____ _____    ______ ____
ATOM      1  N   THR F   1      -3.524   1.558  26.546  0.00  0.00    +0.000 N 
ATOM      2  CA  THR F   1      -3.689   1.918  25.137  0.00  0.00    +0.000 C 
ATOM      3  C   THR F   1      -3.523   3.403  24.861  0.00  0.00    +0.000 C 
ATOM      4  O   THR F   1      -3.443   3.774  23.699  0.00  0.00    +0.000 OA
ATOM      5  CB  THR F   1      -5.036   1.396  24.589  0.00  0.00    +0.000 C 
ATOM      6  OG1 THR F   1      -6.117   1.996  25.288  0.00  0.00    +0.000 OA
ATOM      7  CG2 THR F   1      -5.141  -0.112  24.628  0.00  0.00    +0.000 C 
ATOM      8  N   LEU F   2      -3.468   4.255  25.901  0.00  0.00    +0.000 N 
ATOM      9  CA  LEU F   2      -3.344   5.706  25.734  0.00  0.00    +0.000 C 
ATOM     10  C   LEU F   2      -2.069   6.112  24.959  0.00  0.00    +0.000 C 
ATOM     11  O   LEU F   2      -0.959   5.938  25.463  0.00  0.00    +0.000 OA
ATOM     12  CB  LEU F   2      -3.458   6.426  27.104  0.00  0.00    +0.000 C 
ATOM     13  CG  LEU F   2      -3.022   7.909  27.210  0.00  0.00    +0.000 C 
ATOM     14  CD1 LEU F   2      -4.013   8.821  26.544  0.00  0.00    +0.000 C 
ATOM     15  CD2 LEU F   2      -2.891   8.307  28.636  0.00  0.00    +0.000 C 
ATOM     16  N   GLY F   3      -2.261   6.625  23.744  0.00  0.00    +0.000 N 
ATOM     17  CA  GLY F   3      -1.185   7.042  22.858  0.00  0.00    +0.000 C 
ATOM     18  C   GLY F   3      -0.673   5.967  21.919  0.00  0.00    +0.000 C 
ATOM     19  O   GLY F   3       0.392   6.138  21.336  0.00  0.00    +0.000 OA
ATOM     20  N   ALA F   4      -1.397   4.839  21.783  0.00  0.00    +0.000 N 
ATOM     21  CA  ALA F   4      -1.033   3.750  20.864  0.00  0.00    +0.000 C 
ATOM     22  C   ALA F   4      -1.042   4.220  19.392  0.00  0.00    +0.000 C 
ATOM     23  O   ALA F   4      -0.112   3.915  18.647  0.00  0.00    +0.000 OA
ATOM     24  CB  ALA F   4      -1.969   2.567  21.040  0.00  0.00    +0.000 C 
ATOM     25  N   GLY F   5      -2.059   4.997  19.021  0.00  0.00    +0.000 N 
ATOM     26  CA  GLY F   5      -2.213   5.566  17.688  0.00  0.00    +0.000 C 
ATOM     27  C   GLY F   5      -1.137   6.557  17.340  0.00  0.00    +0.000 C 
ATOM     28  O   GLY F   5      -0.702   6.622  16.189  0.00  0.00    +0.000 OA
ATOM     29  N   ASP F   6      -0.669   7.308  18.344  0.00  0.00    +0.000 N 
ATOM     30  CA  ASP F   6       0.412   8.294  18.211  0.00  0.00    +0.000 C 
ATOM     31  C   ASP F   6       1.754   7.588  18.094  0.00  0.00    +0.000 C 
ATOM     32  O   ASP F   6       2.667   8.116  17.442  0.00  0.00    +0.000 OA
ATOM     33  CB  ASP F   6       0.418   9.241  19.406  0.00  0.00    +0.000 C 
ATOM     34  CG  ASP F   6      -0.863  10.031  19.527  0.00  0.00    +0.000 C 
ATOM     35  OD1 ASP F   6      -1.400  10.458  18.471  0.00  0.00    +0.000 OA
ATOM     36  OD2 ASP F   6      -1.339  10.222  20.677  0.00  0.00    +0.000 OA
ATOM     37  H   THR F   1      -3.648   0.552  26.657  0.00  0.00    +0.000 HD
ATOM     38  H   THR F   1      -4.220   2.050  27.106  0.00  0.00    +0.000 HD
ATOM     39  H   THR F   1      -2.589   1.821  26.857  0.00  0.00    +0.000 HD
ATOM     40  H   THR F   1      -6.076   1.744  26.224  0.00  0.00    +0.000 HD
ATOM     41  H   LEU F   2      -3.513   3.888  26.813  0.00  0.00    +0.000 HD
ATOM     42  H   GLY F   3      -3.187   6.728  23.427  0.00  0.00    +0.000 HD
ATOM     43  H   ALA F   4      -2.212   4.739  22.327  0.00  0.00    +0.000 HD
ATOM     44  H   GLY F   5      -2.751   5.200  19.691  0.00  0.00    +0.000 HD
ATOM     45  H   ASP F   6      -1.077   7.192  19.232  0.00  0.00    +0.000 HD
TER 
REMARK  Name = /data/user_data/xianyang/t3-aimnet-affinity-balanced/L1/P50053/pocket.pdb
REMARK                            x       y       z     vdW  Elec       q    Type
REMARK                         _______ _______ _______ _____ _____    ______ ____
ATOM      1  N   PHE G   1       1.944   4.568  16.631  0.00  0.00    +0.000 N 
ATOM      2  CA  PHE G   1       1.821   4.066  15.273  0.00  0.00    +0.000 C 
ATOM      3  C   PHE G   1       2.273   5.156  14.265  0.00  0.00    +0.000 C 
ATOM      4  O   PHE G   1       3.157   4.904  13.448  0.00  0.00    +0.000 OA
ATOM      5  CB  PHE G   1       0.368   3.631  14.994  0.00  0.00    +0.000 C 
ATOM      6  CG  PHE G   1       0.151   3.200  13.559  0.00  0.00    +0.000 A 
ATOM      7  CD2 PHE G   1       0.533   1.933  13.131  0.00  0.00    +0.000 A 
ATOM      8  CD1 PHE G   1      -0.373   4.090  12.615  0.00  0.00    +0.000 A 
ATOM      9  CE2 PHE G   1       0.421   1.570  11.792  0.00  0.00    +0.000 A 
ATOM     10  CE1 PHE G   1      -0.532   3.705  11.283  0.00  0.00    +0.000 A 
ATOM     11  CZ  PHE G   1      -0.128   2.447  10.881  0.00  0.00    +0.000 A 
ATOM     12  H   PHE G   1       2.909   4.852  16.802  0.00  0.00    +0.000 HD
ATOM     13  H   PHE G   1       1.683   3.834  17.290  0.00  0.00    +0.000 HD
ATOM     14  H   PHE G   1       1.326   5.370  16.754  0.00  0.00    +0.000 HD
TER 
REMARK  Name = /data/user_data/xianyang/t3-aimnet-affinity-balanced/L1/P50053/pocket.pdb
REMARK                            x       y       z     vdW  Elec       q    Type
REMARK                         _______ _______ _______ _____ _____    ______ ____
ATOM      1  N   GLY H   1       5.163   0.165  12.533  0.00  0.00    +0.000 N 
ATOM      2  CA  GLY H   1       4.126   0.946  13.197  0.00  0.00    +0.000 C 
ATOM      3  C   GLY H   1       3.252   0.117  14.119  0.00  0.00    +0.000 C 
ATOM      4  O   GLY H   1       3.031   0.508  15.261  0.00  0.00    +0.000 OA
ATOM      5  N   CYS H   2       2.768  -1.041  13.658  0.00  0.00    +0.000 N 
ATOM      6  CA  CYS H   2       1.937  -1.965  14.463  0.00  0.00    +0.000 C 
ATOM      7  C   CYS H   2       2.737  -2.594  15.573  0.00  0.00    +0.000 C 
ATOM      8  O   CYS H   2       2.197  -2.871  16.647  0.00  0.00    +0.000 OA
ATOM      9  CB  CYS H   2       1.279  -3.031  13.588  0.00  0.00    +0.000 C 
ATOM     10  SG  CYS H   2      -0.011  -2.391  12.487  0.00  0.00    +0.000 S 
ATOM     11  N   GLN H   3       4.034  -2.827  15.308  0.00  0.00    +0.000 N 
ATOM     12  CA  GLN H   3       4.968  -3.474  16.228  0.00  0.00    +0.000 C 
ATOM     13  C   GLN H   3       5.171  -2.646  17.464  0.00  0.00    +0.000 C 
ATOM     14  O   GLN H   3       4.936  -3.133  18.564  0.00  0.00    +0.000 OA
ATOM     15  CB  GLN H   3       6.317  -3.729  15.536  0.00  0.00    +0.000 C 
ATOM     16  CG  GLN H   3       7.186  -4.680  16.308  0.00  0.00    +0.000 C 
ATOM     17  CD  GLN H   3       8.596  -4.636  15.855  0.00  0.00    +0.000 C 
ATOM     18  OE1 GLN H   3       8.903  -4.860  14.686  0.00  0.00    +0.000 OA
ATOM     19  NE2 GLN H   3       9.486  -4.369  16.792  0.00  0.00    +0.000 N 
ATOM     20  H   GLY H   1       5.715   0.775  11.930  0.00  0.00    +0.000 HD
ATOM     21  H   GLY H   1       4.729  -0.567  11.971  0.00  0.00    +0.000 HD
ATOM     22  H   GLY H   1       5.770  -0.259  13.234  0.00  0.00    +0.000 HD
ATOM     23  H   CYS H   2       2.976  -1.294  12.730  0.00  0.00    +0.000 HD
ATOM     24  H   CYS H   2       0.536  -1.500  11.617  0.00  0.00    +0.000 HD
ATOM     25  H   GLN H   3       4.380  -2.542  14.432  0.00  0.00    +0.000 HD
ATOM     26  H   GLN H   3      10.443  -4.324  16.564  0.00  0.00    +0.000 HD
ATOM     27  H   GLN H   3       9.193  -4.215  17.719  0.00  0.00    +0.000 HD
TER 
REMARK  Name = /data/user_data/xianyang/t3-aimnet-affinity-balanced/L1/P50053/pocket.pdb
REMARK                            x       y       z     vdW  Elec       q    Type
REMARK                         _______ _______ _______ _____ _____    ______ ____
ATOM      1  N   ALA I   1       3.479   0.210  18.353  0.00  0.00    +0.000 N 
ATOM      2  CA  ALA I   1       2.165   0.495  18.994  0.00  0.00    +0.000 C 
ATOM      3  C   ALA I   1       1.730  -0.667  19.889  0.00  0.00    +0.000 C 
ATOM      4  O   ALA I   1       1.302  -0.434  21.023  0.00  0.00    +0.000 OA
ATOM      5  CB  ALA I   1       1.084   0.798  17.958  0.00  0.00    +0.000 C 
ATOM      6  N   GLY I   2       1.882  -1.896  19.386  0.00  0.00    +0.000 N 
ATOM      7  CA  GLY I   2       1.578  -3.113  20.123  0.00  0.00    +0.000 C 
ATOM      8  C   GLY I   2       2.409  -3.241  21.374  0.00  0.00    +0.000 C 
ATOM      9  O   GLY I   2       1.868  -3.485  22.427  0.00  0.00    +0.000 OA
ATOM     10  N   LYS I   3       3.708  -3.027  21.288  0.00  0.00    +0.000 N 
ATOM     11  CA  LYS I   3       4.650  -3.073  22.410  0.00  0.00    +0.000 C 
ATOM     12  C   LYS I   3       4.252  -2.066  23.492  0.00  0.00    +0.000 C 
ATOM     13  O   LYS I   3       4.206  -2.420  24.662  0.00  0.00    +0.000 OA
ATOM     14  CB  LYS I   3       6.086  -2.831  21.910  0.00  0.00    +0.000 C 
ATOM     15  CG  LYS I   3       7.139  -2.740  23.021  0.00  0.00    +0.000 C 
ATOM     16  CD  LYS I   3       7.845  -4.042  23.261  0.00  0.00    +0.000 C 
ATOM     17  CE  LYS I   3       8.997  -3.921  24.214  0.00  0.00    +0.000 C 
ATOM     18  NZ  LYS I   3       8.524  -4.228  25.587  0.00  0.00    +0.000 N 
ATOM     19  H   ALA I   1       3.747   0.997  17.763  0.00  0.00    +0.000 HD
ATOM     20  H   ALA I   1       3.404  -0.632  17.783  0.00  0.00    +0.000 HD
ATOM     21  H   ALA I   1       4.186   0.070  19.075  0.00  0.00    +0.000 HD
ATOM     22  H   GLY I   2       2.219  -1.983  18.465  0.00  0.00    +0.000 HD
ATOM     23  H   LYS I   3       4.074  -2.820  20.398  0.00  0.00    +0.000 HD
ATOM     24  H   LYS I   3       7.788  -3.571  25.848  0.00  0.00    +0.000 HD
ATOM     25  H   LYS I   3       9.302  -4.144  26.241  0.00  0.00    +0.000 HD
ATOM     26  H   LYS I   3       8.157  -5.179  25.615  0.00  0.00    +0.000 HD
TER 
REMARK  Name = /data/user_data/xianyang/t3-aimnet-affinity-balanced/L1/P50053/pocket.pdb
REMARK                            x       y       z     vdW  Elec       q    Type
REMARK                         _______ _______ _______ _____ _____    ______ ____
ATOM      1  N   CYS J   1       1.264  -0.923  24.106  0.00  0.00    +0.000 N 
ATOM      2  CA  CYS J   1       0.006  -1.338  24.756  0.00  0.00    +0.000 C 
ATOM      3  C   CYS J   1       0.191  -2.248  25.983  0.00  0.00    +0.000 C 
ATOM      4  O   CYS J   1      -0.651  -2.216  26.862  0.00  0.00    +0.000 OA
ATOM      5  CB  CYS J   1      -0.956  -1.949  23.750  0.00  0.00    +0.000 C 
ATOM      6  SG  CYS J   1      -1.658  -0.759  22.589  0.00  0.00    +0.000 S 
ATOM      7  H   CYS J   1       1.053  -0.326  23.307  0.00  0.00    +0.000 HD
ATOM      8  H   CYS J   1       1.771  -1.749  23.789  0.00  0.00    +0.000 HD
ATOM      9  H   CYS J   1       1.838  -0.407  24.774  0.00  0.00    +0.000 HD
ATOM     10  H   CYS J   1      -0.661  -0.208  21.846  0.00  0.00    +0.000 HD
TER 
REMARK  Name = /data/user_data/xianyang/t3-aimnet-affinity-balanced/L1/P50053/pocket.pdb
REMARK                            x       y       z     vdW  Elec       q    Type
REMARK                         _______ _______ _______ _____ _____    ______ ____
ATOM      1  N   ASP K   1     -13.680   3.974  26.696  0.00  0.00    +0.000 N 
ATOM      2  CA  ASP K   1     -12.746   3.956  25.568  0.00  0.00    +0.000 C 
ATOM      3  C   ASP K   1     -12.919   5.184  24.651  0.00  0.00    +0.000 C 
ATOM      4  O   ASP K   1     -12.252   5.277  23.631  0.00  0.00    +0.000 OA
ATOM      5  CB  ASP K   1     -12.764   2.605  24.799  0.00  0.00    +0.000 C 
ATOM      6  CG  ASP K   1     -11.461   2.165  24.141  0.00  0.00    +0.000 C 
ATOM      7  OD2 ASP K   1     -10.481   2.967  24.129  0.00  0.00    +0.000 OA
ATOM      8  OD1 ASP K   1     -11.418   1.026  23.615  0.00  0.00    +0.000 OA
ATOM      9  H   ASP K   1     -13.630   4.878  27.165  0.00  0.00    +0.000 HD
ATOM     10  H   ASP K   1     -13.432   3.235  27.354  0.00  0.00    +0.000 HD
ATOM     11  H   ASP K   1     -14.629   3.821  26.354  0.00  0.00    +0.000 HD
TER 
