REMARK  Name = /data/user_data/xianyang/t3-aimnet-affinity-balanced/L4/Q9Y239/pocket.pdb
REMARK                            x       y       z     vdW  Elec       q    Type
REMARK                         _______ _______ _______ _____ _____    ______ ____
ATOM      1  N   PHE A   1      13.828  16.031  25.337  0.00  0.00    +0.000 N 
ATOM      2  CA  PHE A   1      14.457  15.426  24.175  0.00  0.00    +0.000 C 
ATOM      3  C   PHE A   1      13.685  14.171  23.809  0.00  0.00    +0.000 C 
ATOM      4  O   PHE A   1      13.456  13.301  24.649  0.00  0.00    +0.000 OA
ATOM      5  CB  PHE A   1      15.924  15.090  24.442  0.00  0.00    +0.000 C 
ATOM      6  CG  PHE A   1      16.738  16.271  24.893  0.00  0.00    +0.000 A 
ATOM      7  CD1 PHE A   1      17.187  17.209  23.979  0.00  0.00    +0.000 A 
ATOM      8  CD2 PHE A   1      17.050  16.438  26.234  0.00  0.00    +0.000 A 
ATOM      9  CE1 PHE A   1      17.933  18.299  24.388  0.00  0.00    +0.000 A 
ATOM     10  CE2 PHE A   1      17.797  17.526  26.652  0.00  0.00    +0.000 A 
ATOM     11  CZ  PHE A   1      18.238  18.456  25.732  0.00  0.00    +0.000 A 
ATOM     12  N   LEU A   2      13.291  14.073  22.546  0.00  0.00    +0.000 N 
ATOM     13  CA  LEU A   2      12.478  12.968  22.067  0.00  0.00    +0.000 C 
ATOM     14  C   LEU A   2      13.369  11.936  21.384  0.00  0.00    +0.000 C 
ATOM     15  O   LEU A   2      13.830  12.160  20.266  0.00  0.00    +0.000 OA
ATOM     16  CB  LEU A   2      11.412  13.474  21.100  0.00  0.00    +0.000 C 
ATOM     17  CG  LEU A   2      10.365  12.469  20.631  0.00  0.00    +0.000 C 
ATOM     18  CD2 LEU A   2       9.541  11.972  21.810  0.00  0.00    +0.000 C 
ATOM     19  CD1 LEU A   2       9.481  13.082  19.559  0.00  0.00    +0.000 C 
ATOM     20  N   PRO A   3      13.633  10.808  22.036  0.00  0.00    +0.000 N 
ATOM     21  CA  PRO A   3      14.478   9.795  21.408  0.00  0.00    +0.000 C 
ATOM     22  C   PRO A   3      13.748   9.066  20.290  0.00  0.00    +0.000 C 
ATOM     23  O   PRO A   3      12.517   9.053  20.229  0.00  0.00    +0.000 OA
ATOM     24  CB  PRO A   3      14.824   8.850  22.563  0.00  0.00    +0.000 C 
ATOM     25  CG  PRO A   3      13.699   9.018  23.520  0.00  0.00    +0.000 C 
ATOM     26  CD  PRO A   3      13.242  10.439  23.404  0.00  0.00    +0.000 C 
ATOM     27  N   PHE A   4      14.544   8.429  19.403  0.00  0.00    +0.000 N 
ATOM     28  CA  PHE A   4      13.974   7.726  18.260  0.00  0.00    +0.000 C 
ATOM     29  C   PHE A   4      13.124   6.540  18.687  0.00  0.00    +0.000 C 
ATOM     30  O   PHE A   4      12.095   6.254  18.073  0.00  0.00    +0.000 OA
ATOM     31  CB  PHE A   4      15.079   7.256  17.320  0.00  0.00    +0.000 C 
ATOM     32  CG  PHE A   4      15.692   8.361  16.504  0.00  0.00    +0.000 A 
ATOM     33  CD2 PHE A   4      15.603   9.686  16.890  0.00  0.00    +0.000 A 
ATOM     34  CD1 PHE A   4      16.372   8.071  15.329  0.00  0.00    +0.000 A 
ATOM     35  CE2 PHE A   4      16.175  10.694  16.136  0.00  0.00    +0.000 A 
ATOM     36  CE1 PHE A   4      16.947   9.065  14.571  0.00  0.00    +0.000 A 
ATOM     37  CZ  PHE A   4      16.850  10.378  14.976  0.00  0.00    +0.000 A 
ATOM     38  N   GLN A   5      13.521   5.830  19.740  0.00  0.00    +0.000 N 
ATOM     39  CA  GLN A   5      12.757   4.671  20.169  0.00  0.00    +0.000 C 
ATOM     40  C   GLN A   5      11.380   5.060  20.675  0.00  0.00    +0.000 C 
ATOM     41  O   GLN A   5      10.441   4.266  20.587  0.00  0.00    +0.000 OA
ATOM     42  CB  GLN A   5      13.521   3.894  21.254  0.00  0.00    +0.000 C 
ATOM     43  CG  GLN A   5      13.821   4.672  22.522  0.00  0.00    +0.000 C 
ATOM     44  CD  GLN A   5      15.169   5.359  22.464  0.00  0.00    +0.000 C 
ATOM     45  OE1 GLN A   5      15.694   5.627  21.392  0.00  0.00    +0.000 OA
ATOM     46  NE2 GLN A   5      15.744   5.630  23.637  0.00  0.00    +0.000 N 
ATOM     47  H   PHE A   1      12.853  16.242  25.125  0.00  0.00    +0.000 HD
ATOM     48  H   PHE A   1      14.317  16.893  25.578  0.00  0.00    +0.000 HD
ATOM     49  H   PHE A   1      13.872  15.383  26.124  0.00  0.00    +0.000 HD
ATOM     50  H   LEU A   2      13.559  14.775  21.910  0.00  0.00    +0.000 HD
ATOM     51  H   PHE A   4      15.520   8.440  19.530  0.00  0.00    +0.000 HD
ATOM     52  H   GLN A   5      14.334   6.091  20.230  0.00  0.00    +0.000 HD
ATOM     53  H   GLN A   5      16.621   6.076  23.664  0.00  0.00    +0.000 HD
ATOM     54  H   GLN A   5      15.291   5.384  24.476  0.00  0.00    +0.000 HD
TER 
REMARK  Name = /data/user_data/xianyang/t3-aimnet-affinity-balanced/L4/Q9Y239/pocket.pdb
REMARK                            x       y       z     vdW  Elec       q    Type
REMARK                         _______ _______ _______ _____ _____    ______ ____
ATOM      1  N   LEU B   1       9.576   7.374  19.302  0.00  0.00    +0.000 N 
ATOM      2  CA  LEU B   1       8.791   7.555  18.088  0.00  0.00    +0.000 C 
ATOM      3  C   LEU B   1       8.281   6.220  17.561  0.00  0.00    +0.000 C 
ATOM      4  O   LEU B   1       7.125   6.110  17.145  0.00  0.00    +0.000 OA
ATOM      5  CB  LEU B   1       9.620   8.270  17.023  0.00  0.00    +0.000 C 
ATOM      6  CG  LEU B   1       8.926   8.518  15.687  0.00  0.00    +0.000 C 
ATOM      7  CD2 LEU B   1       7.712   9.405  15.858  0.00  0.00    +0.000 C 
ATOM      8  CD1 LEU B   1       9.903   9.118  14.684  0.00  0.00    +0.000 C 
ATOM      9  H   LEU B   1       9.904   8.281  19.633  0.00  0.00    +0.000 HD
ATOM     10  H   LEU B   1      10.377   6.774  19.103  0.00  0.00    +0.000 HD
ATOM     11  H   LEU B   1       8.996   6.940  20.020  0.00  0.00    +0.000 HD
TER 
REMARK  Name = /data/user_data/xianyang/t3-aimnet-affinity-balanced/L4/Q9Y239/pocket.pdb
REMARK                            x       y       z     vdW  Elec       q    Type
REMARK                         _______ _______ _______ _____ _____    ______ ____
ATOM      1  N   ARG C   1       4.044  20.787  15.231  0.00  0.00    +0.000 N 
ATOM      2  CA  ARG C   1       4.777  19.557  14.949  0.00  0.00    +0.000 C 
ATOM      3  C   ARG C   1       4.146  18.872  13.747  0.00  0.00    +0.000 C 
ATOM      4  O   ARG C   1       2.986  18.452  13.801  0.00  0.00    +0.000 OA
ATOM      5  CB  ARG C   1       4.776  18.633  16.165  0.00  0.00    +0.000 C 
ATOM      6  CG  ARG C   1       5.468  19.212  17.391  0.00  0.00    +0.000 C 
ATOM      7  CD  ARG C   1       5.323  18.311  18.601  0.00  0.00    +0.000 C 
ATOM      8  NE  ARG C   1       5.846  16.969  18.370  0.00  0.00    +0.000 N 
ATOM      9  CZ  ARG C   1       7.084  16.579  18.646  0.00  0.00    +0.000 C 
ATOM     10  NH2 ARG C   1       7.948  17.422  19.184  0.00  0.00    +0.000 N 
ATOM     11  NH1 ARG C   1       7.455  15.337  18.379  0.00  0.00    +0.000 N 
ATOM     12  H   ARG C   1       4.058  21.388  14.407  0.00  0.00    +0.000 HD
ATOM     13  H   ARG C   1       4.483  21.273  16.013  0.00  0.00    +0.000 HD
ATOM     14  H   ARG C   1       3.079  20.560  15.470  0.00  0.00    +0.000 HD
ATOM     15  H   ARG C   1       5.235  16.303  17.980  0.00  0.00    +0.000 HD
ATOM     16  H   ARG C   1       7.675  18.346  19.384  0.00  0.00    +0.000 HD
ATOM     17  H   ARG C   1       8.865  17.126  19.385  0.00  0.00    +0.000 HD
ATOM     18  H   ARG C   1       6.813  14.707  17.978  0.00  0.00    +0.000 HD
ATOM     19  H   ARG C   1       8.373  15.043  18.581  0.00  0.00    +0.000 HD
TER 
REMARK  Name = /data/user_data/xianyang/t3-aimnet-affinity-balanced/L4/Q9Y239/pocket.pdb
REMARK                            x       y       z     vdW  Elec       q    Type
REMARK                         _______ _______ _______ _____ _____    ______ ____
ATOM      1  N   TYR D   1       8.343  26.398  18.607  0.00  0.00    +0.000 N 
ATOM      2  CA  TYR D   1       8.743  25.028  18.318  0.00  0.00    +0.000 C 
ATOM      3  C   TYR D   1       8.222  24.664  16.941  0.00  0.00    +0.000 C 
ATOM      4  O   TYR D   1       7.017  24.765  16.685  0.00  0.00    +0.000 OA
ATOM      5  CB  TYR D   1       8.194  24.069  19.379  0.00  0.00    +0.000 C 
ATOM      6  CG  TYR D   1       8.669  22.635  19.250  0.00  0.00    +0.000 A 
ATOM      7  CD1 TYR D   1       8.195  21.810  18.237  0.00  0.00    +0.000 A 
ATOM      8  CD2 TYR D   1       9.579  22.108  20.159  0.00  0.00    +0.000 A 
ATOM      9  CE1 TYR D   1       8.627  20.493  18.125  0.00  0.00    +0.000 A 
ATOM     10  CE2 TYR D   1      10.011  20.793  20.055  0.00  0.00    +0.000 A 
ATOM     11  CZ  TYR D   1       9.533  19.991  19.038  0.00  0.00    +0.000 A 
ATOM     12  OH  TYR D   1       9.957  18.693  18.933  0.00  0.00    +0.000 OA
ATOM     13  H   TYR D   1       8.718  27.020  17.891  0.00  0.00    +0.000 HD
ATOM     14  H   TYR D   1       8.706  26.673  19.520  0.00  0.00    +0.000 HD
ATOM     15  H   TYR D   1       7.325  26.461  18.613  0.00  0.00    +0.000 HD
ATOM     16  H   TYR D   1       9.633  18.149  18.243  0.00  0.00    +0.000 HD
TER 
REMARK  Name = /data/user_data/xianyang/t3-aimnet-affinity-balanced/L4/Q9Y239/pocket.pdb
REMARK                            x       y       z     vdW  Elec       q    Type
REMARK                         _______ _______ _______ _____ _____    ______ ____
ATOM      1  N   TYR E   1      10.588  16.934  11.218  0.00  0.00    +0.000 N 
ATOM      2  CA  TYR E   1      11.380  15.721  11.068  0.00  0.00    +0.000 C 
ATOM      3  C   TYR E   1      10.704  14.752  10.106  0.00  0.00    +0.000 C 
ATOM      4  O   TYR E   1       9.488  14.562  10.138  0.00  0.00    +0.000 OA
ATOM      5  CB  TYR E   1      11.592  15.066  12.436  0.00  0.00    +0.000 C 
ATOM      6  CG  TYR E   1      12.029  13.626  12.367  0.00  0.00    +0.000 A 
ATOM      7  CD1 TYR E   1      13.328  13.286  12.007  0.00  0.00    +0.000 A 
ATOM      8  CD2 TYR E   1      11.137  12.599  12.663  0.00  0.00    +0.000 A 
ATOM      9  CE1 TYR E   1      13.728  11.960  11.941  0.00  0.00    +0.000 A 
ATOM     10  CE2 TYR E   1      11.533  11.270  12.603  0.00  0.00    +0.000 A 
ATOM     11  CZ  TYR E   1      12.829  10.956  12.242  0.00  0.00    +0.000 A 
ATOM     12  OH  TYR E   1      13.219   9.649  12.178  0.00  0.00    +0.000 OA
ATOM     13  H   TYR E   1      10.450  17.365  10.304  0.00  0.00    +0.000 HD
ATOM     14  H   TYR E   1      11.077  17.586  11.831  0.00  0.00    +0.000 HD
ATOM     15  H   TYR E   1       9.682  16.700  11.624  0.00  0.00    +0.000 HD
ATOM     16  H   TYR E   1      14.098   9.434  11.933  0.00  0.00    +0.000 HD
TER 
REMARK  Name = /data/user_data/xianyang/t3-aimnet-affinity-balanced/L4/Q9Y239/pocket.pdb
REMARK                            x       y       z     vdW  Elec       q    Type
REMARK                         _______ _______ _______ _____ _____    ______ ____
ATOM      1  N   LEU F   1      13.977  23.654  16.632  0.00  0.00    +0.000 N 
ATOM      2  CA  LEU F   1      13.846  23.426  15.199  0.00  0.00    +0.000 C 
ATOM      3  C   LEU F   1      14.255  21.991  14.899  0.00  0.00    +0.000 C 
ATOM      4  O   LEU F   1      15.402  21.609  15.129  0.00  0.00    +0.000 OA
ATOM      5  CB  LEU F   1      14.708  24.412  14.406  0.00  0.00    +0.000 C 
ATOM      6  CG  LEU F   1      14.700  24.266  12.889  0.00  0.00    +0.000 C 
ATOM      7  CD2 LEU F   1      13.301  24.484  12.340  0.00  0.00    +0.000 C 
ATOM      8  CD1 LEU F   1      15.685  25.233  12.258  0.00  0.00    +0.000 C 
ATOM      9  N   LYS F   2      13.312  21.203  14.388  0.00  0.00    +0.000 N 
ATOM     10  CA  LYS F   2      13.536  19.790  14.097  0.00  0.00    +0.000 C 
ATOM     11  C   LYS F   2      13.442  19.578  12.592  0.00  0.00    +0.000 C 
ATOM     12  O   LYS F   2      12.360  19.667  12.016  0.00  0.00    +0.000 OA
ATOM     13  CB  LYS F   2      12.511  18.918  14.819  0.00  0.00    +0.000 C 
ATOM     14  CG  LYS F   2      12.305  19.261  16.284  0.00  0.00    +0.000 C 
ATOM     15  CD  LYS F   2      13.560  19.026  17.099  0.00  0.00    +0.000 C 
ATOM     16  CE  LYS F   2      13.300  19.283  18.571  0.00  0.00    +0.000 C 
ATOM     17  NZ  LYS F   2      14.529  19.128  19.393  0.00  0.00    +0.000 N 
ATOM     18  N   LEU F   3      14.589  19.291  11.973  0.00  0.00    +0.000 N 
ATOM     19  CA  LEU F   3      14.681  19.116  10.530  0.00  0.00    +0.000 C 
ATOM     20  C   LEU F   3      15.352  17.804  10.149  0.00  0.00    +0.000 C 
ATOM     21  O   LEU F   3      15.862  17.670   9.034  0.00  0.00    +0.000 OA
ATOM     22  CB  LEU F   3      15.438  20.289   9.899  0.00  0.00    +0.000 C 
ATOM     23  CG  LEU F   3      14.712  21.629   9.842  0.00  0.00    +0.000 C 
ATOM     24  CD2 LEU F   3      15.678  22.723   9.425  0.00  0.00    +0.000 C 
ATOM     25  CD1 LEU F   3      13.537  21.551   8.886  0.00  0.00    +0.000 C 
ATOM     26  N   GLY F   4      15.350  16.833  11.024  0.00  0.00    +0.000 N 
ATOM     27  CA  GLY F   4      15.990  15.568  10.739  0.00  0.00    +0.000 C 
ATOM     28  C   GLY F   4      15.303  14.791   9.631  0.00  0.00    +0.000 C 
ATOM     29  O   GLY F   4      14.102  14.918   9.401  0.00  0.00    +0.000 OA
ATOM     30  N   LYS F   5      16.113  13.931   9.014  0.00  0.00    +0.000 N 
ATOM     31  CA  LYS F   5      15.626  12.991   8.016  0.00  0.00    +0.000 C 
ATOM     32  C   LYS F   5      14.811  13.694   6.932  0.00  0.00    +0.000 C 
ATOM     33  O   LYS F   5      13.663  13.341   6.646  0.00  0.00    +0.000 OA
ATOM     34  CB  LYS F   5      14.836  11.865   8.674  0.00  0.00    +0.000 C 
ATOM     35  CG  LYS F   5      14.929  10.565   7.915  0.00  0.00    +0.000 C 
ATOM     36  CD  LYS F   5      14.344   9.407   8.704  0.00  0.00    +0.000 C 
ATOM     37  CE  LYS F   5      14.546   8.111   7.968  0.00  0.00    +0.000 C 
ATOM     38  NZ  LYS F   5      13.978   6.960   8.722  0.00  0.00    +0.000 N 
ATOM     39  H   LEU F   1      13.706  24.613  16.850  0.00  0.00    +0.000 HD
ATOM     40  H   LEU F   1      14.946  23.502  16.913  0.00  0.00    +0.000 HD
ATOM     41  H   LEU F   1      13.371  23.007  17.136  0.00  0.00    +0.000 HD
ATOM     42  H   LYS F   2      12.426  21.589  14.198  0.00  0.00    +0.000 HD
ATOM     43  H   LYS F   2      14.874  18.171  19.312  0.00  0.00    +0.000 HD
ATOM     44  H   LYS F   2      14.313  19.330  20.369  0.00  0.00    +0.000 HD
ATOM     45  H   LYS F   2      15.244  19.776  19.062  0.00  0.00    +0.000 HD
ATOM     46  H   LEU F   3      15.406  19.194  12.514  0.00  0.00    +0.000 HD
ATOM     47  H   GLY F   4      14.905  16.965  11.892  0.00  0.00    +0.000 HD
ATOM     48  H   LYS F   5      17.071  13.932   9.241  0.00  0.00    +0.000 HD
ATOM     49  H   LYS F   5      14.447   6.880   9.624  0.00  0.00    +0.000 HD
ATOM     50  H   LYS F   5      14.117   6.102   8.188  0.00  0.00    +0.000 HD
ATOM     51  H   LYS F   5      12.980   7.110   8.870  0.00  0.00    +0.000 HD
TER 
REMARK  Name = /data/user_data/xianyang/t3-aimnet-affinity-balanced/L4/Q9Y239/pocket.pdb
REMARK                            x       y       z     vdW  Elec       q    Type
REMARK                         _______ _______ _______ _____ _____    ______ ____
ATOM      1  N   GLU G   1      17.718  24.344  20.465  0.00  0.00    +0.000 N 
ATOM      2  CA  GLU G   1      17.790  22.952  20.041  0.00  0.00    +0.000 C 
ATOM      3  C   GLU G   1      17.571  22.876  18.540  0.00  0.00    +0.000 C 
ATOM      4  O   GLU G   1      16.549  23.341  18.037  0.00  0.00    +0.000 OA
ATOM      5  CB  GLU G   1      16.760  22.102  20.781  0.00  0.00    +0.000 C 
ATOM      6  CG  GLU G   1      16.856  20.614  20.498  0.00  0.00    +0.000 C 
ATOM      7  CD  GLU G   1      15.956  19.788  21.407  0.00  0.00    +0.000 C 
ATOM      8  OE2 GLU G   1      15.325  20.364  22.319  0.00  0.00    +0.000 OA
ATOM      9  OE1 GLU G   1      15.881  18.559  21.208  0.00  0.00    +0.000 OA
ATOM     10  N   VAL G   2      18.551  22.301  17.838  0.00  0.00    +0.000 N 
ATOM     11  CA  VAL G   2      18.499  22.149  16.391  0.00  0.00    +0.000 C 
ATOM     12  C   VAL G   2      18.779  20.695  16.048  0.00  0.00    +0.000 C 
ATOM     13  O   VAL G   2      19.795  20.136  16.465  0.00  0.00    +0.000 OA
ATOM     14  CB  VAL G   2      19.508  23.070  15.678  0.00  0.00    +0.000 C 
ATOM     15  CG1 VAL G   2      19.487  22.813  14.176  0.00  0.00    +0.000 C 
ATOM     16  CG2 VAL G   2      19.188  24.530  15.970  0.00  0.00    +0.000 C 
ATOM     17  N   GLY G   3      17.883  20.099  15.297  0.00  0.00    +0.000 N 
ATOM     18  CA  GLY G   3      18.030  18.722  14.869  0.00  0.00    +0.000 C 
ATOM     19  C   GLY G   3      18.192  18.621  13.367  0.00  0.00    +0.000 C 
ATOM     20  O   GLY G   3      17.357  19.110  12.611  0.00  0.00    +0.000 OA
ATOM     21  N   MET G   4      19.275  17.963  12.943  0.00  0.00    +0.000 N 
ATOM     22  CA  MET G   4      19.581  17.776  11.530  0.00  0.00    +0.000 C 
ATOM     23  C   MET G   4      19.832  16.306  11.212  0.00  0.00    +0.000 C 
ATOM     24  O   MET G   4      20.426  15.994  10.177  0.00  0.00    +0.000 OA
ATOM     25  CB  MET G   4      20.804  18.609  11.131  0.00  0.00    +0.000 C 
ATOM     26  CG  MET G   4      20.627  20.105  11.270  0.00  0.00    +0.000 C 
ATOM     27  SD  MET G   4      19.500  20.766  10.019  0.00  0.00    +0.000 S 
ATOM     28  CE  MET G   4      20.396  20.373   8.517  0.00  0.00    +0.000 C 
ATOM     29  N   TRP G   5      19.387  15.390  12.059  0.00  0.00    +0.000 N 
ATOM     30  CA  TRP G   5      19.666  13.970  11.894  0.00  0.00    +0.000 C 
ATOM     31  C   TRP G   5      19.130  13.455  10.566  0.00  0.00    +0.000 C 
ATOM     32  O   TRP G   5      18.015  13.771  10.158  0.00  0.00    +0.000 OA
ATOM     33  CB  TRP G   5      19.059  13.165  13.039  0.00  0.00    +0.000 C 
ATOM     34  CG  TRP G   5      19.312  11.695  12.911  0.00  0.00    +0.000 C 
ATOM     35  CD1 TRP G   5      20.415  11.018  13.332  0.00  0.00    +0.000 C 
ATOM     36  CD2 TRP G   5      18.463  10.715  12.301  0.00  0.00    +0.000 A 
ATOM     37  NE1 TRP G   5      20.306   9.686  13.022  0.00  0.00    +0.000 NA
ATOM     38  CE2 TRP G   5      19.112   9.468  12.384  0.00  0.00    +0.000 A 
ATOM     39  CE3 TRP G   5      17.206  10.780  11.682  0.00  0.00    +0.000 A 
ATOM     40  CZ2 TRP G   5      18.555   8.297  11.881  0.00  0.00    +0.000 A 
ATOM     41  CZ3 TRP G   5      16.657   9.613  11.189  0.00  0.00    +0.000 A 
ATOM     42  CH2 TRP G   5      17.321   8.388  11.289  0.00  0.00    +0.000 A 
ATOM     43  N   GLY G   6      19.940  12.666   9.910  0.00  0.00    +0.000 N 
ATOM     44  CA  GLY G   6      19.506  11.972   8.714  0.00  0.00    +0.000 C 
ATOM     45  C   GLY G   6      19.490  12.794   7.448  0.00  0.00    +0.000 C 
ATOM     46  O   GLY G   6      18.818  12.422   6.487  0.00  0.00    +0.000 OA
ATOM     47  H   GLU G   1      18.414  24.890  19.958  0.00  0.00    +0.000 HD
ATOM     48  H   GLU G   1      17.902  24.404  21.466  0.00  0.00    +0.000 HD
ATOM     49  H   GLU G   1      16.787  24.712  20.268  0.00  0.00    +0.000 HD
ATOM     50  H   VAL G   2      19.342  21.966  18.319  0.00  0.00    +0.000 HD
ATOM     51  H   GLY G   3      17.086  20.603  15.015  0.00  0.00    +0.000 HD
ATOM     52  H   MET G   4      19.892  17.589  13.613  0.00  0.00    +0.000 HD
ATOM     53  H   TRP G   5      18.847  15.680  12.829  0.00  0.00    +0.000 HD
ATOM     54  H   GLY G   6      20.861  12.541  10.234  0.00  0.00    +0.000 HD
TER 
REMARK  Name = /data/user_data/xianyang/t3-aimnet-affinity-balanced/L4/Q9Y239/pocket.pdb
REMARK                            x       y       z     vdW  Elec       q    Type
REMARK                         _______ _______ _______ _____ _____    ______ ____
ATOM      1  N   THR H   1      21.453  22.162  22.448  0.00  0.00    +0.000 N 
ATOM      2  CA  THR H   1      21.390  20.819  21.878  0.00  0.00    +0.000 C 
ATOM      3  C   THR H   1      21.501  20.909  20.366  0.00  0.00    +0.000 C 
ATOM      4  O   THR H   1      20.815  21.714  19.731  0.00  0.00    +0.000 OA
ATOM      5  CB  THR H   1      20.091  20.105  22.267  0.00  0.00    +0.000 C 
ATOM      6  OG1 THR H   1      19.978  20.053  23.698  0.00  0.00    +0.000 OA
ATOM      7  CG2 THR H   1      20.066  18.686  21.712  0.00  0.00    +0.000 C 
ATOM      8  N   LEU H   2      22.377  20.070  19.794  0.00  0.00    +0.000 N 
ATOM      9  CA  LEU H   2      22.571  20.021  18.352  0.00  0.00    +0.000 C 
ATOM     10  C   LEU H   2      22.743  18.572  17.933  0.00  0.00    +0.000 C 
ATOM     11  O   LEU H   2      23.545  17.841  18.516  0.00  0.00    +0.000 OA
ATOM     12  CB  LEU H   2      23.792  20.842  17.922  0.00  0.00    +0.000 C 
ATOM     13  CG  LEU H   2      24.197  20.737  16.454  0.00  0.00    +0.000 C 
ATOM     14  CD1 LEU H   2      23.111  21.313  15.557  0.00  0.00    +0.000 C 
ATOM     15  CD2 LEU H   2      25.521  21.436  16.214  0.00  0.00    +0.000 C 
ATOM     16  N   SER H   3      21.992  18.176  16.931  0.00  0.00    +0.000 N 
ATOM     17  CA  SER H   3      22.102  16.846  16.365  0.00  0.00    +0.000 C 
ATOM     18  C   SER H   3      22.566  16.944  14.917  0.00  0.00    +0.000 C 
ATOM     19  O   SER H   3      21.871  17.517  14.070  0.00  0.00    +0.000 OA
ATOM     20  CB  SER H   3      20.777  16.093  16.436  0.00  0.00    +0.000 C 
ATOM     21  OG  SER H   3      20.885  14.833  15.792  0.00  0.00    +0.000 OA
ATOM     22  H   THR H   1      22.327  22.608  22.171  0.00  0.00    +0.000 HD
ATOM     23  H   THR H   1      21.410  22.102  23.465  0.00  0.00    +0.000 HD
ATOM     24  H   THR H   1      20.666  22.714  22.106  0.00  0.00    +0.000 HD
ATOM     25  H   THR H   1      20.726  19.555  24.064  0.00  0.00    +0.000 HD
ATOM     26  H   LEU H   2      22.905  19.469  20.367  0.00  0.00    +0.000 HD
ATOM     27  H   SER H   3      21.333  18.802  16.552  0.00  0.00    +0.000 HD
ATOM     28  H   SER H   3      21.566  14.301  16.234  0.00  0.00    +0.000 HD
TER 
REMARK  Name = /data/user_data/xianyang/t3-aimnet-affinity-balanced/L4/Q9Y239/pocket.pdb
REMARK                            x       y       z     vdW  Elec       q    Type
REMARK                         _______ _______ _______ _____ _____    ______ ____
ATOM      1  N   ALA I   1      23.701  13.901  13.612  0.00  0.00    +0.000 N 
ATOM      2  CA  ALA I   1      23.827  12.467  13.423  0.00  0.00    +0.000 C 
ATOM      3  C   ALA I   1      23.429  12.075  12.004  0.00  0.00    +0.000 C 
ATOM      4  O   ALA I   1      22.539  12.669  11.400  0.00  0.00    +0.000 OA
ATOM      5  CB  ALA I   1      22.977  11.713  14.441  0.00  0.00    +0.000 C 
ATOM      6  N   SER I   2      24.124  11.078  11.485  0.00  0.00    +0.000 N 
ATOM      7  CA  SER I   2      23.830  10.493  10.181  0.00  0.00    +0.000 C 
ATOM      8  C   SER I   2      23.800  11.559   9.091  0.00  0.00    +0.000 C 
ATOM      9  O   SER I   2      22.828  11.674   8.337  0.00  0.00    +0.000 OA
ATOM     10  CB  SER I   2      22.520   9.712  10.217  0.00  0.00    +0.000 C 
ATOM     11  OG  SER I   2      22.329   8.977   9.014  0.00  0.00    +0.000 OA
ATOM     12  H   ALA I   1      24.276  14.387  12.923  0.00  0.00    +0.000 HD
ATOM     13  H   ALA I   1      24.013  14.149  14.551  0.00  0.00    +0.000 HD
ATOM     14  H   ALA I   1      22.726  14.175  13.495  0.00  0.00    +0.000 HD
ATOM     15  H   SER I   2      24.877  10.712  12.003  0.00  0.00    +0.000 HD
ATOM     16  H   SER I   2      23.054   8.342   8.904  0.00  0.00    +0.000 HD
TER 
REMARK  Name = /data/user_data/xianyang/t3-aimnet-affinity-balanced/L4/Q9Y239/pocket.pdb
REMARK                            x       y       z     vdW  Elec       q    Type
REMARK                         _______ _______ _______ _____ _____    ______ ____
ATOM      1  N   ILE J   1      24.483  19.159  24.764  0.00  0.00    +0.000 N 
ATOM      2  CA  ILE J   1      24.270  17.857  24.148  0.00  0.00    +0.000 C 
ATOM      3  C   ILE J   1      24.611  17.957  22.669  0.00  0.00    +0.000 C 
ATOM      4  O   ILE J   1      24.119  18.850  21.969  0.00  0.00    +0.000 OA
ATOM      5  CB  ILE J   1      22.819  17.365  24.336  0.00  0.00    +0.000 C 
ATOM      6  CG1 ILE J   1      22.453  17.336  25.821  0.00  0.00    +0.000 C 
ATOM      7  CG2 ILE J   1      22.641  15.989  23.706  0.00  0.00    +0.000 C 
ATOM      8  CD1 ILE J   1      21.019  16.925  26.095  0.00  0.00    +0.000 C 
ATOM      9  H   ILE J   1      25.450  19.450  24.619  0.00  0.00    +0.000 HD
ATOM     10  H   ILE J   1      24.293  19.097  25.764  0.00  0.00    +0.000 HD
ATOM     11  H   ILE J   1      23.856  19.842  24.340  0.00  0.00    +0.000 HD
TER 
REMARK  Name = /data/user_data/xianyang/t3-aimnet-affinity-balanced/L4/Q9Y239/pocket.pdb
REMARK                            x       y       z     vdW  Elec       q    Type
REMARK                         _______ _______ _______ _____ _____    ______ ____
ATOM      1  N   UNL     1      24.927  15.431  19.226  0.00  0.00    +0.000 N 
ATOM      2  CA  UNL     1      24.720  14.151  18.562  0.00  0.00    +0.000 C 
ATOM      3  C   UNL     1      25.571  14.103  17.300  0.00  0.00    +0.000 C 
ATOM      4  O   UNL     1      25.384  14.909  16.384  0.00  0.00    +0.000 OA
ATOM      5  C   UNL     1      23.246  13.947  18.205  0.00  0.00    +0.000 C 
ATOM      6  C   UNL     1      22.339  13.725  19.370  0.00  0.00    +0.000 C 
ATOM      7  C   UNL     1      21.851  14.661  20.220  0.00  0.00    +0.000 C 
ATOM      8  C   UNL     1      21.784  12.473  19.798  0.00  0.00    +0.000 C 
ATOM      9  N   UNL     1      21.040  14.072  21.164  0.00  0.00    +0.000 N 
ATOM     10  C   UNL     1      20.977  12.723  20.922  0.00  0.00    +0.000 C 
ATOM     11  C   UNL     1      21.895  11.156  19.332  0.00  0.00    +0.000 C 
ATOM     12  C   UNL     1      20.282  11.720  21.590  0.00  0.00    +0.000 C 
ATOM     13  C   UNL     1      21.203  10.157  19.999  0.00  0.00    +0.000 C 
ATOM     14  C   UNL     1      20.406  10.447  21.112  0.00  0.00    +0.000 C 
ATOM     15  N   UNL     1      27.457  12.123  22.029  0.00  0.00    +0.000 N 
ATOM     16  CA  UNL     1      27.007  10.865  21.450  0.00  0.00    +0.000 C 
ATOM     17  C   UNL     1      27.735  10.613  20.136  0.00  0.00    +0.000 C 
ATOM     18  O   UNL     1      27.543  11.333  19.153  0.00  0.00    +0.000 OA
ATOM     19  C   UNL     1      25.482  10.891  21.254  0.00  0.00    +0.000 C 
ATOM     20  C   UNL     1      24.754  10.978  22.562  0.00  0.00    +0.000 C 
ATOM     21  C   UNL     1      25.139  10.437  23.758  0.00  0.00    +0.000 C 
ATOM     22  C   UNL     1      23.509  11.632  22.815  0.00  0.00    +0.000 A 
ATOM     23  N   UNL     1      24.217  10.726  24.734  0.00  0.00    +0.000 NA
ATOM     24  C   UNL     1      23.206  11.454  24.182  0.00  0.00    +0.000 A 
ATOM     25  C   UNL     1      22.614  12.345  22.015  0.00  0.00    +0.000 A 
ATOM     26  C   UNL     1      22.049  11.974  24.763  0.00  0.00    +0.000 A 
ATOM     27  C   UNL     1      21.468  12.854  22.594  0.00  0.00    +0.000 A 
ATOM     28  C   UNL     1      21.192  12.667  23.947  0.00  0.00    +0.000 A 
ATOM     29  H   UNL     1      25.916  15.541  19.452  0.00  0.00    +0.000 HD
ATOM     30  H   UNL     1      24.376  15.462  20.084  0.00  0.00    +0.000 HD
ATOM     31  H   UNL     1      24.634  16.187  18.607  0.00  0.00    +0.000 HD
ATOM     32  H   UNL     1      20.579  14.543  21.895  0.00  0.00    +0.000 HD
ATOM     33  H   UNL     1      28.469  12.097  22.155  0.00  0.00    +0.000 HD
ATOM     34  H   UNL     1      27.005  12.262  22.933  0.00  0.00    +0.000 HD
ATOM     35  H   UNL     1      27.212  12.891  21.405  0.00  0.00    +0.000 HD
TER 
REMARK  Name = /data/user_data/xianyang/t3-aimnet-affinity-balanced/L4/Q9Y239/pocket.pdb
REMARK                            x       y       z     vdW  Elec       q    Type
REMARK                         _______ _______ _______ _____ _____    ______ ____
ATOM      1  N   THR L   1      26.215  10.766  15.990  0.00  0.00    +0.000 N 
ATOM      2  CA  THR L   1      26.095   9.341  15.722  0.00  0.00    +0.000 C 
ATOM      3  C   THR L   1      25.992   9.078  14.224  0.00  0.00    +0.000 C 
ATOM      4  O   THR L   1      25.623   9.953  13.433  0.00  0.00    +0.000 OA
ATOM      5  CB  THR L   1      24.860   8.762  16.427  0.00  0.00    +0.000 C 
ATOM      6  OG1 THR L   1      23.694   9.450  15.959  0.00  0.00    +0.000 OA
ATOM      7  CG2 THR L   1      24.978   8.938  17.932  0.00  0.00    +0.000 C 
ATOM      8  N   GLN L   2      26.356   7.872  13.830  0.00  0.00    +0.000 N 
ATOM      9  CA  GLN L   2      26.225   7.389  12.459  0.00  0.00    +0.000 C 
ATOM     10  C   GLN L   2      26.855   8.351  11.460  0.00  0.00    +0.000 C 
ATOM     11  O   GLN L   2      26.245   8.743  10.464  0.00  0.00    +0.000 OA
ATOM     12  CB  GLN L   2      24.759   7.128  12.112  0.00  0.00    +0.000 C 
ATOM     13  CG  GLN L   2      24.174   5.920  12.818  0.00  0.00    +0.000 C 
ATOM     14  CD  GLN L   2      22.742   5.644  12.418  0.00  0.00    +0.000 C 
ATOM     15  OE1 GLN L   2      21.956   6.566  12.228  0.00  0.00    +0.000 OA
ATOM     16  NE2 GLN L   2      22.396   4.370  12.291  0.00  0.00    +0.000 N 
ATOM     17  H   THR L   1      27.039  11.133  15.515  0.00  0.00    +0.000 HD
ATOM     18  H   THR L   1      26.307  10.916  16.995  0.00  0.00    +0.000 HD
ATOM     19  H   THR L   1      25.383  11.247  15.649  0.00  0.00    +0.000 HD
ATOM     20  H   THR L   1      23.772  10.395  16.164  0.00  0.00    +0.000 HD
ATOM     21  H   GLN L   2      26.739   7.262  14.501  0.00  0.00    +0.000 HD
ATOM     22  H   GLN L   2      21.476   4.133  12.033  0.00  0.00    +0.000 HD
ATOM     23  H   GLN L   2      23.059   3.661  12.455  0.00  0.00    +0.000 HD
TER 
REMARK  Name = /data/user_data/xianyang/t3-aimnet-affinity-balanced/L4/Q9Y239/pocket.pdb
REMARK                            x       y       z     vdW  Elec       q    Type
REMARK                         _______ _______ _______ _____ _____    ______ ____
ATOM      1  N   ILE M   1      27.850   7.398  18.658  0.00  0.00    +0.000 N 
ATOM      2  CA  ILE M   1      27.429   6.039  18.372  0.00  0.00    +0.000 C 
ATOM      3  C   ILE M   1      27.607   5.741  16.887  0.00  0.00    +0.000 C 
ATOM      4  O   ILE M   1      27.317   6.575  16.023  0.00  0.00    +0.000 OA
ATOM      5  CB  ILE M   1      25.969   5.821  18.808  0.00  0.00    +0.000 C 
ATOM      6  CG1 ILE M   1      25.815   6.139  20.301  0.00  0.00    +0.000 C 
ATOM      7  CG2 ILE M   1      25.516   4.403  18.515  0.00  0.00    +0.000 C 
ATOM      8  CD1 ILE M   1      24.376   6.205  20.767  0.00  0.00    +0.000 C 
ATOM      9  N   GLN M   2      28.104   4.533  16.582  0.00  0.00    +0.000 N 
ATOM     10  CA  GLN M   2      28.246   4.025  15.219  0.00  0.00    +0.000 C 
ATOM     11  C   GLN M   2      29.094   4.963  14.366  0.00  0.00    +0.000 C 
ATOM     12  O   GLN M   2      28.627   5.551  13.387  0.00  0.00    +0.000 OA
ATOM     13  CB  GLN M   2      26.883   3.779  14.573  0.00  0.00    +0.000 C 
ATOM     14  CG  GLN M   2      26.137   2.602  15.176  0.00  0.00    +0.000 C 
ATOM     15  CD  GLN M   2      24.843   2.294  14.455  0.00  0.00    +0.000 C 
ATOM     16  OE1 GLN M   2      24.314   3.130  13.720  0.00  0.00    +0.000 OA
ATOM     17  NE2 GLN M   2      24.324   1.092  14.657  0.00  0.00    +0.000 N 
ATOM     18  H   ILE M   1      28.818   7.523  18.363  0.00  0.00    +0.000 HD
ATOM     19  H   ILE M   1      27.775   7.574  19.660  0.00  0.00    +0.000 HD
ATOM     20  H   ILE M   1      27.253   8.052  18.152  0.00  0.00    +0.000 HD
ATOM     21  H   GLN M   2      28.391   3.952  17.323  0.00  0.00    +0.000 HD
ATOM     22  H   GLN M   2      23.483   0.838  14.213  0.00  0.00    +0.000 HD
ATOM     23  H   GLN M   2      24.779   0.453  15.251  0.00  0.00    +0.000 HD
TER 
