REMARK  Name = /data/user_data/xianyang/t3-aimnet-affinity-balanced/L3/P40879/pocket.pdb
REMARK                            x       y       z     vdW  Elec       q    Type
REMARK                         _______ _______ _______ _____ _____    ______ ____
ATOM      1  N   GLN A   1     130.524  84.196 114.714  0.00  0.00    +0.000 N 
ATOM      2  CA  GLN A   1     129.736  85.397 114.956  0.00  0.00    +0.000 C 
ATOM      3  C   GLN A   1     130.074  86.495 113.960  0.00  0.00    +0.000 C 
ATOM      4  O   GLN A   1     129.190  87.244 113.541  0.00  0.00    +0.000 OA
ATOM      5  CB  GLN A   1     129.951  85.882 116.387  0.00  0.00    +0.000 C 
ATOM      6  CG  GLN A   1     129.191  85.084 117.426  0.00  0.00    +0.000 C 
ATOM      7  CD  GLN A   1     128.504  85.966 118.441  0.00  0.00    +0.000 C 
ATOM      8  OE1 GLN A   1     129.021  87.018 118.814  0.00  0.00    +0.000 OA
ATOM      9  NE2 GLN A   1     127.330  85.546 118.894  0.00  0.00    +0.000 N 
ATOM     10  H   GLN A   1     130.375  83.879 113.756  0.00  0.00    +0.000 HD
ATOM     11  H   GLN A   1     130.236  83.464 115.363  0.00  0.00    +0.000 HD
ATOM     12  H   GLN A   1     131.513  84.404 114.853  0.00  0.00    +0.000 HD
ATOM     13  H   GLN A   1     126.952  84.697 118.569  0.00  0.00    +0.000 HD
ATOM     14  H   GLN A   1     126.837  86.083 119.555  0.00  0.00    +0.000 HD
TER 
REMARK  Name = /data/user_data/xianyang/t3-aimnet-affinity-balanced/L3/P40879/pocket.pdb
REMARK                            x       y       z     vdW  Elec       q    Type
REMARK                         _______ _______ _______ _____ _____    ______ ____
ATOM      1  N   PHE B   1     127.447  88.343 111.598  0.00  0.00    +0.000 N 
ATOM      2  CA  PHE B   1     127.150  89.757 111.790  0.00  0.00    +0.000 C 
ATOM      3  C   PHE B   1     127.510  90.597 110.576  0.00  0.00    +0.000 C 
ATOM      4  O   PHE B   1     126.861  91.618 110.328  0.00  0.00    +0.000 OA
ATOM      5  CB  PHE B   1     127.882  90.289 113.021  0.00  0.00    +0.000 C 
ATOM      6  CG  PHE B   1     127.502  89.596 114.292  0.00  0.00    +0.000 A 
ATOM      7  CD1 PHE B   1     126.254  89.018 114.435  0.00  0.00    +0.000 A 
ATOM      8  CD2 PHE B   1     128.396  89.514 115.343  0.00  0.00    +0.000 A 
ATOM      9  CE1 PHE B   1     125.906  88.371 115.602  0.00  0.00    +0.000 A 
ATOM     10  CE2 PHE B   1     128.053  88.868 116.511  0.00  0.00    +0.000 A 
ATOM     11  CZ  PHE B   1     126.809  88.294 116.639  0.00  0.00    +0.000 A 
ATOM     12  H   PHE B   1     126.953  88.001 110.774  0.00  0.00    +0.000 HD
ATOM     13  H   PHE B   1     127.145  87.818 112.418  0.00  0.00    +0.000 HD
ATOM     14  H   PHE B   1     128.451  88.221 111.467  0.00  0.00    +0.000 HD
TER 
REMARK  Name = /data/user_data/xianyang/t3-aimnet-affinity-balanced/L3/P40879/pocket.pdb
REMARK                            x       y       z     vdW  Elec       q    Type
REMARK                         _______ _______ _______ _____ _____    ______ ____
ATOM      1  N   PHE C   1     129.207  93.175 117.653  0.00  0.00    +0.000 N 
ATOM      2  CA  PHE C   1     127.979  92.595 118.160  0.00  0.00    +0.000 C 
ATOM      3  C   PHE C   1     126.812  93.079 117.306  0.00  0.00    +0.000 C 
ATOM      4  O   PHE C   1     126.847  94.197 116.785  0.00  0.00    +0.000 OA
ATOM      5  CB  PHE C   1     127.754  92.937 119.642  0.00  0.00    +0.000 C 
ATOM      6  CG  PHE C   1     127.515  94.390 119.918  0.00  0.00    +0.000 A 
ATOM      7  CD1 PHE C   1     128.567  95.277 120.005  0.00  0.00    +0.000 A 
ATOM      8  CD2 PHE C   1     126.239  94.858 120.146  0.00  0.00    +0.000 A 
ATOM      9  CE1 PHE C   1     128.342  96.605 120.277  0.00  0.00    +0.000 A 
ATOM     10  CE2 PHE C   1     126.014  96.183 120.422  0.00  0.00    +0.000 A 
ATOM     11  CZ  PHE C   1     127.065  97.057 120.485  0.00  0.00    +0.000 A 
ATOM     12  N   PRO C   2     125.769  92.257 117.142  0.00  0.00    +0.000 N 
ATOM     13  CA  PRO C   2     124.828  92.474 116.028  0.00  0.00    +0.000 C 
ATOM     14  C   PRO C   2     124.159  93.835 116.035  0.00  0.00    +0.000 C 
ATOM     15  O   PRO C   2     123.833  94.355 114.961  0.00  0.00    +0.000 OA
ATOM     16  CB  PRO C   2     123.802  91.345 116.206  0.00  0.00    +0.000 C 
ATOM     17  CG  PRO C   2     124.003  90.832 117.583  0.00  0.00    +0.000 C 
ATOM     18  CD  PRO C   2     125.422  91.071 117.939  0.00  0.00    +0.000 C 
ATOM     19  N   ILE C   3     123.940  94.430 117.208  0.00  0.00    +0.000 N 
ATOM     20  CA  ILE C   3     123.348  95.762 117.259  0.00  0.00    +0.000 C 
ATOM     21  C   ILE C   3     124.268  96.783 116.610  0.00  0.00    +0.000 C 
ATOM     22  O   ILE C   3     123.821  97.653 115.852  0.00  0.00    +0.000 OA
ATOM     23  CB  ILE C   3     123.046  96.156 118.712  0.00  0.00    +0.000 C 
ATOM     24  CG1 ILE C   3     121.686  95.649 119.152  0.00  0.00    +0.000 C 
ATOM     25  CG2 ILE C   3     123.114  97.663 118.875  0.00  0.00    +0.000 C 
ATOM     26  CD1 ILE C   3     121.367  96.118 120.510  0.00  0.00    +0.000 C 
ATOM     27  N   LEU C   4     125.562  96.718 116.920  0.00  0.00    +0.000 N 
ATOM     28  CA  LEU C   4     126.492  97.683 116.353  0.00  0.00    +0.000 C 
ATOM     29  C   LEU C   4     126.599  97.499 114.849  0.00  0.00    +0.000 C 
ATOM     30  O   LEU C   4     126.718  98.475 114.100  0.00  0.00    +0.000 OA
ATOM     31  CB  LEU C   4     127.856  97.548 117.021  0.00  0.00    +0.000 C 
ATOM     32  CG  LEU C   4     128.632  98.853 117.119  0.00  0.00    +0.000 C 
ATOM     33  CD2 LEU C   4     127.817  99.799 117.954  0.00  0.00    +0.000 C 
ATOM     34  CD1 LEU C   4     129.982  98.617 117.767  0.00  0.00    +0.000 C 
ATOM     35  H   PHE C   1     129.320  92.926 116.670  0.00  0.00    +0.000 HD
ATOM     36  H   PHE C   1     129.998  92.817 118.188  0.00  0.00    +0.000 HD
ATOM     37  H   PHE C   1     129.167  94.190 117.744  0.00  0.00    +0.000 HD
ATOM     38  H   ILE C   3     124.179  93.968 118.044  0.00  0.00    +0.000 HD
ATOM     39  H   LEU C   4     125.888  96.019 117.531  0.00  0.00    +0.000 HD
TER 
REMARK  Name = /data/user_data/xianyang/t3-aimnet-affinity-balanced/L3/P40879/pocket.pdb
REMARK                            x       y       z     vdW  Elec       q    Type
REMARK                         _______ _______ _______ _____ _____    ______ ____
ATOM      1  N   VAL D   1     128.628 107.474 130.673  0.00  0.00    +0.000 N 
ATOM      2  CA  VAL D   1     127.894 106.219 130.736  0.00  0.00    +0.000 C 
ATOM      3  C   VAL D   1     126.900 106.160 131.888  0.00  0.00    +0.000 C 
ATOM      4  O   VAL D   1     126.053 105.265 131.916  0.00  0.00    +0.000 OA
ATOM      5  CB  VAL D   1     128.882 105.037 130.830  0.00  0.00    +0.000 C 
ATOM      6  CG2 VAL D   1     129.291 104.801 132.272  0.00  0.00    +0.000 C 
ATOM      7  CG1 VAL D   1     128.269 103.784 130.232  0.00  0.00    +0.000 C 
ATOM      8  H   VAL D   1     129.274 107.451 129.884  0.00  0.00    +0.000 HD
ATOM      9  H   VAL D   1     129.152 107.605 131.538  0.00  0.00    +0.000 HD
ATOM     10  H   VAL D   1     127.972 108.246 130.553  0.00  0.00    +0.000 HD
TER 
REMARK  Name = /data/user_data/xianyang/t3-aimnet-affinity-balanced/L3/P40879/pocket.pdb
REMARK                            x       y       z     vdW  Elec       q    Type
REMARK                         _______ _______ _______ _____ _____    ______ ____
ATOM      1  N   LEU E   1     122.670 106.813 131.398  0.00  0.00    +0.000 N 
ATOM      2  CA  LEU E   1     121.746 105.790 130.927  0.00  0.00    +0.000 C 
ATOM      3  C   LEU E   1     121.281 104.974 132.126  0.00  0.00    +0.000 C 
ATOM      4  O   LEU E   1     122.060 104.215 132.708  0.00  0.00    +0.000 OA
ATOM      5  CB  LEU E   1     122.409 104.905 129.877  0.00  0.00    +0.000 C 
ATOM      6  CG  LEU E   1     122.914 105.653 128.646  0.00  0.00    +0.000 C 
ATOM      7  CD2 LEU E   1     124.102 104.940 128.033  0.00  0.00    +0.000 C 
ATOM      8  CD1 LEU E   1     121.803 105.802 127.632  0.00  0.00    +0.000 C 
ATOM      9  H   LEU E   1     122.992 107.370 130.607  0.00  0.00    +0.000 HD
ATOM     10  H   LEU E   1     123.470 106.368 131.848  0.00  0.00    +0.000 HD
ATOM     11  H   LEU E   1     122.195 107.417 132.069  0.00  0.00    +0.000 HD
TER 
REMARK  Name = /data/user_data/xianyang/t3-aimnet-affinity-balanced/L3/P40879/pocket.pdb
REMARK                            x       y       z     vdW  Elec       q    Type
REMARK                         _______ _______ _______ _____ _____    ______ ____
ATOM      1  N   LEU F   1     116.047 102.536 131.172  0.00  0.00    +0.000 N 
ATOM      2  CA  LEU F   1     116.321 102.870 129.779  0.00  0.00    +0.000 C 
ATOM      3  C   LEU F   1     117.122 101.769 129.104  0.00  0.00    +0.000 C 
ATOM      4  O   LEU F   1     116.866 101.428 127.946  0.00  0.00    +0.000 OA
ATOM      5  CB  LEU F   1     117.062 104.202 129.690  0.00  0.00    +0.000 C 
ATOM      6  CG  LEU F   1     117.070 104.892 128.327  0.00  0.00    +0.000 C 
ATOM      7  CD2 LEU F   1     117.060 106.394 128.508  0.00  0.00    +0.000 C 
ATOM      8  CD1 LEU F   1     118.276 104.472 127.513  0.00  0.00    +0.000 C 
ATOM      9  N   ILE F   2     118.098 101.203 129.814  0.00  0.00    +0.000 N 
ATOM     10  CA  ILE F   2     118.892 100.117 129.252  0.00  0.00    +0.000 C 
ATOM     11  C   ILE F   2     118.006  98.919 128.945  0.00  0.00    +0.000 C 
ATOM     12  O   ILE F   2     118.118  98.302 127.879  0.00  0.00    +0.000 OA
ATOM     13  CB  ILE F   2     120.037  99.749 130.211  0.00  0.00    +0.000 C 
ATOM     14  CG1 ILE F   2     121.220 100.692 130.005  0.00  0.00    +0.000 C 
ATOM     15  CG2 ILE F   2     120.468  98.310 130.009  0.00  0.00    +0.000 C 
ATOM     16  CD1 ILE F   2     122.218 100.676 131.141  0.00  0.00    +0.000 C 
ATOM     17  H   LEU F   1     115.552 101.645 131.217  0.00  0.00    +0.000 HD
ATOM     18  H   LEU F   1     115.471 103.266 131.590  0.00  0.00    +0.000 HD
ATOM     19  H   LEU F   1     116.926 102.463 131.683  0.00  0.00    +0.000 HD
ATOM     20  H   ILE F   2     118.284 101.521 130.727  0.00  0.00    +0.000 HD
TER 
REMARK  Name = /data/user_data/xianyang/t3-aimnet-affinity-balanced/L3/P40879/pocket.pdb
REMARK                            x       y       z     vdW  Elec       q    Type
REMARK                         _______ _______ _______ _____ _____    ______ ____
ATOM      1  N   PHE G   1     115.804  99.693 125.897  0.00  0.00    +0.000 N 
ATOM      2  CA  PHE G   1     116.609  99.673 124.685  0.00  0.00    +0.000 C 
ATOM      3  C   PHE G   1     116.938  98.249 124.276  0.00  0.00    +0.000 C 
ATOM      4  O   PHE G   1     116.866  97.907 123.093  0.00  0.00    +0.000 OA
ATOM      5  CB  PHE G   1     117.889 100.473 124.898  0.00  0.00    +0.000 C 
ATOM      6  CG  PHE G   1     118.658 100.730 123.642  0.00  0.00    +0.000 A 
ATOM      7  CD1 PHE G   1     118.410 101.858 122.889  0.00  0.00    +0.000 A 
ATOM      8  CD2 PHE G   1     119.630  99.846 123.215  0.00  0.00    +0.000 A 
ATOM      9  CE1 PHE G   1     119.117 102.102 121.735  0.00  0.00    +0.000 A 
ATOM     10  CE2 PHE G   1     120.342 100.086 122.061  0.00  0.00    +0.000 A 
ATOM     11  CZ  PHE G   1     120.084 101.215 121.320  0.00  0.00    +0.000 A 
ATOM     12  N   THR G   2     117.290  97.399 125.242  0.00  0.00    +0.000 N 
ATOM     13  CA  THR G   2     117.598  96.012 124.915  0.00  0.00    +0.000 C 
ATOM     14  C   THR G   2     116.383  95.294 124.346  0.00  0.00    +0.000 C 
ATOM     15  O   THR G   2     116.508  94.511 123.402  0.00  0.00    +0.000 OA
ATOM     16  CB  THR G   2     118.112  95.270 126.146  0.00  0.00    +0.000 C 
ATOM     17  OG1 THR G   2     117.291  95.585 127.275  0.00  0.00    +0.000 OA
ATOM     18  CG2 THR G   2     119.543  95.658 126.441  0.00  0.00    +0.000 C 
ATOM     19  H   PHE G   1     114.950  99.156 125.747  0.00  0.00    +0.000 HD
ATOM     20  H   PHE G   1     115.563 100.657 126.129  0.00  0.00    +0.000 HD
ATOM     21  H   PHE G   1     116.334  99.280 126.664  0.00  0.00    +0.000 HD
ATOM     22  H   THR G   2     117.342  97.708 126.175  0.00  0.00    +0.000 HD
ATOM     23  H   THR G   2     117.330  96.539 127.447  0.00  0.00    +0.000 HD
TER 
REMARK  Name = /data/user_data/xianyang/t3-aimnet-affinity-balanced/L3/P40879/pocket.pdb
REMARK                            x       y       z     vdW  Elec       q    Type
REMARK                         _______ _______ _______ _____ _____    ______ ____
ATOM      1  N   ALA H   1     115.732  96.549 120.856  0.00  0.00    +0.000 N 
ATOM      2  CA  ALA H   1     116.794  96.087 119.979  0.00  0.00    +0.000 C 
ATOM      3  C   ALA H   1     116.692  94.595 119.696  0.00  0.00    +0.000 C 
ATOM      4  O   ALA H   1     117.090  94.134 118.622  0.00  0.00    +0.000 OA
ATOM      5  CB  ALA H   1     118.130  96.429 120.607  0.00  0.00    +0.000 C 
ATOM      6  H   ALA H   1     114.827  96.324 120.442  0.00  0.00    +0.000 HD
ATOM      7  H   ALA H   1     115.808  97.559 120.979  0.00  0.00    +0.000 HD
ATOM      8  H   ALA H   1     115.815  96.089 121.763  0.00  0.00    +0.000 HD
TER 
REMARK  Name = /data/user_data/xianyang/t3-aimnet-affinity-balanced/L3/P40879/pocket.pdb
REMARK                            x       y       z     vdW  Elec       q    Type
REMARK                         _______ _______ _______ _____ _____    ______ ____
ATOM      1  N   VAL I   1     126.777 104.176 121.836  0.00  0.00    +0.000 N 
ATOM      2  CA  VAL I   1     126.190 102.859 122.072  0.00  0.00    +0.000 C 
ATOM      3  C   VAL I   1     127.281 101.821 122.287  0.00  0.00    +0.000 C 
ATOM      4  O   VAL I   1     127.191 100.984 123.193  0.00  0.00    +0.000 OA
ATOM      5  CB  VAL I   1     125.260 102.469 120.910  0.00  0.00    +0.000 C 
ATOM      6  CG1 VAL I   1     125.052 100.968 120.882  0.00  0.00    +0.000 C 
ATOM      7  CG2 VAL I   1     123.934 103.184 121.040  0.00  0.00    +0.000 C 
ATOM      8  H   VAL I   1     126.033 104.859 121.694  0.00  0.00    +0.000 HD
ATOM      9  H   VAL I   1     127.369 104.141 121.006  0.00  0.00    +0.000 HD
ATOM     10  H   VAL I   1     127.339 104.448 122.643  0.00  0.00    +0.000 HD
TER 
REMARK  Name = /data/user_data/xianyang/t3-aimnet-affinity-balanced/L3/P40879/pocket.pdb
REMARK                            x       y       z     vdW  Elec       q    Type
REMARK                         _______ _______ _______ _____ _____    ______ ____
ATOM      1  N   ALA J   1     128.915 102.354 125.754  0.00  0.00    +0.000 N 
ATOM      2  CA  ALA J   1     128.021 101.949 126.831  0.00  0.00    +0.000 C 
ATOM      3  C   ALA J   1     127.912 100.434 126.913  0.00  0.00    +0.000 C 
ATOM      4  O   ALA J   1     127.944  99.861 128.008  0.00  0.00    +0.000 OA
ATOM      5  CB  ALA J   1     126.644 102.579 126.637  0.00  0.00    +0.000 C 
ATOM      6  N   VAL J   2     127.796  99.765 125.763  0.00  0.00    +0.000 N 
ATOM      7  CA  VAL J   2     127.682  98.310 125.758  0.00  0.00    +0.000 C 
ATOM      8  C   VAL J   2     128.942  97.685 126.338  0.00  0.00    +0.000 C 
ATOM      9  O   VAL J   2     128.879  96.775 127.174  0.00  0.00    +0.000 OA
ATOM     10  CB  VAL J   2     127.410  97.798 124.332  0.00  0.00    +0.000 C 
ATOM     11  CG2 VAL J   2     127.940  96.384 124.159  0.00  0.00    +0.000 C 
ATOM     12  CG1 VAL J   2     125.933  97.867 124.009  0.00  0.00    +0.000 C 
ATOM     13  H   ALA J   1     128.969 103.372 125.722  0.00  0.00    +0.000 HD
ATOM     14  H   ALA J   1     128.557 102.004 124.865  0.00  0.00    +0.000 HD
ATOM     15  H   ALA J   1     129.845 101.969 125.921  0.00  0.00    +0.000 HD
ATOM     16  H   VAL J   2     127.787 100.258 124.911  0.00  0.00    +0.000 HD
TER 
REMARK  Name = /data/user_data/xianyang/t3-aimnet-affinity-balanced/L3/P40879/pocket.pdb
REMARK                            x       y       z     vdW  Elec       q    Type
REMARK                         _______ _______ _______ _____ _____    ______ ____
ATOM      1  N   SER K   1     129.137  98.290 130.153  0.00  0.00    +0.000 N 
ATOM      2  CA  SER K   1     128.167  97.488 130.890  0.00  0.00    +0.000 C 
ATOM      3  C   SER K   1     128.563  96.019 130.909  0.00  0.00    +0.000 C 
ATOM      4  O   SER K   1     128.358  95.331 131.915  0.00  0.00    +0.000 OA
ATOM      5  CB  SER K   1     126.774  97.661 130.291  0.00  0.00    +0.000 C 
ATOM      6  OG  SER K   1     126.055  98.674 130.970  0.00  0.00    +0.000 OA
ATOM      7  N   VAL K   2     129.123  95.514 129.808  0.00  0.00    +0.000 N 
ATOM      8  CA  VAL K   2     129.539  94.116 129.778  0.00  0.00    +0.000 C 
ATOM      9  C   VAL K   2     130.749  93.895 130.676  0.00  0.00    +0.000 C 
ATOM     10  O   VAL K   2     130.830  92.891 131.392  0.00  0.00    +0.000 OA
ATOM     11  CB  VAL K   2     129.817  93.671 128.332  0.00  0.00    +0.000 C 
ATOM     12  CG2 VAL K   2     130.578  92.362 128.321  0.00  0.00    +0.000 C 
ATOM     13  CG1 VAL K   2     128.515  93.531 127.570  0.00  0.00    +0.000 C 
ATOM     14  H   SER K   1     128.844  99.267 130.158  0.00  0.00    +0.000 HD
ATOM     15  H   SER K   1     129.192  97.957 129.191  0.00  0.00    +0.000 HD
ATOM     16  H   SER K   1     130.053  98.207 130.595  0.00  0.00    +0.000 HD
ATOM     17  H   SER K   1     125.956  98.430 131.903  0.00  0.00    +0.000 HD
ATOM     18  H   VAL K   2     129.255  96.084 129.017  0.00  0.00    +0.000 HD
TER 
REMARK  Name = /data/user_data/xianyang/t3-aimnet-affinity-balanced/L3/P40879/pocket.pdb
REMARK                            x       y       z     vdW  Elec       q    Type
REMARK                         _______ _______ _______ _____ _____    ______ ____
ATOM      1  N   ALA L   1     130.762  91.665 122.788  0.00  0.00    +0.000 N 
ATOM      2  CA  ALA L   1     129.417  91.117 122.722  0.00  0.00    +0.000 C 
ATOM      3  C   ALA L   1     129.145  90.284 123.965  0.00  0.00    +0.000 C 
ATOM      4  O   ALA L   1     130.021  89.554 124.436  0.00  0.00    +0.000 OA
ATOM      5  CB  ALA L   1     129.237  90.260 121.470  0.00  0.00    +0.000 C 
ATOM      6  N   LEU L   2     127.926  90.400 124.498  0.00  0.00    +0.000 N 
ATOM      7  CA  LEU L   2     127.600  89.689 125.729  0.00  0.00    +0.000 C 
ATOM      8  C   LEU L   2     127.690  88.182 125.533  0.00  0.00    +0.000 C 
ATOM      9  O   LEU L   2     128.221  87.471 126.392  0.00  0.00    +0.000 OA
ATOM     10  CB  LEU L   2     126.209  90.086 126.223  0.00  0.00    +0.000 C 
ATOM     11  CG  LEU L   2     126.009  90.159 127.743  0.00  0.00    +0.000 C 
ATOM     12  CD1 LEU L   2     124.627  90.680 128.073  0.00  0.00    +0.000 C 
ATOM     13  CD2 LEU L   2     126.231  88.823 128.437  0.00  0.00    +0.000 C 
ATOM     14  N   SER L   3     127.185  87.674 124.408  0.00  0.00    +0.000 N 
ATOM     15  CA  SER L   3     127.216  86.234 124.172  0.00  0.00    +0.000 C 
ATOM     16  C   SER L   3     128.647  85.721 124.075  0.00  0.00    +0.000 C 
ATOM     17  O   SER L   3     129.019  84.746 124.740  0.00  0.00    +0.000 OA
ATOM     18  CB  SER L   3     126.436  85.898 122.902  0.00  0.00    +0.000 C 
ATOM     19  OG  SER L   3     126.725  86.825 121.871  0.00  0.00    +0.000 OA
ATOM     20  N   ARG L   4     129.468  86.371 123.248  0.00  0.00    +0.000 N 
ATOM     21  CA  ARG L   4     130.845  85.923 123.075  0.00  0.00    +0.000 C 
ATOM     22  C   ARG L   4     131.641  86.065 124.365  0.00  0.00    +0.000 C 
ATOM     23  O   ARG L   4     132.415  85.171 124.727  0.00  0.00    +0.000 OA
ATOM     24  CB  ARG L   4     131.513  86.704 121.946  0.00  0.00    +0.000 C 
ATOM     25  CG  ARG L   4     132.763  86.042 121.410  0.00  0.00    +0.000 C 
ATOM     26  CD  ARG L   4     133.473  86.930 120.412  0.00  0.00    +0.000 C 
ATOM     27  NE  ARG L   4     132.538  87.730 119.633  0.00  0.00    +0.000 N 
ATOM     28  CZ  ARG L   4     132.644  89.040 119.466  0.00  0.00    +0.000 C 
ATOM     29  NH2 ARG L   4     133.626  89.729 120.021  0.00  0.00    +0.000 N 
ATOM     30  NH1 ARG L   4     131.741  89.675 118.724  0.00  0.00    +0.000 N 
ATOM     31  H   ALA L   1     130.943  92.223 121.954  0.00  0.00    +0.000 HD
ATOM     32  H   ALA L   1     131.438  90.903 122.840  0.00  0.00    +0.000 HD
ATOM     33  H   ALA L   1     130.849  92.254 123.617  0.00  0.00    +0.000 HD
ATOM     34  H   LEU L   2     127.248  90.965 124.061  0.00  0.00    +0.000 HD
ATOM     35  H   SER L   3     126.790  88.273 123.734  0.00  0.00    +0.000 HD
ATOM     36  H   SER L   3     127.672  86.792 121.663  0.00  0.00    +0.000 HD
ATOM     37  H   ARG L   4     129.143  87.157 122.752  0.00  0.00    +0.000 HD
ATOM     38  H   ARG L   4     131.781  87.269 119.204  0.00  0.00    +0.000 HD
ATOM     39  H   ARG L   4     133.684  90.702 119.883  0.00  0.00    +0.000 HD
ATOM     40  H   ARG L   4     134.299  89.269 120.573  0.00  0.00    +0.000 HD
ATOM     41  H   ARG L   4     131.005  89.172 118.306  0.00  0.00    +0.000 HD
ATOM     42  H   ARG L   4     131.808  90.648 118.593  0.00  0.00    +0.000 HD
TER 
REMARK  Name = /data/user_data/xianyang/t3-aimnet-affinity-balanced/L3/P40879/pocket.pdb
REMARK                            x       y       z     vdW  Elec       q    Type
REMARK                         _______ _______ _______ _____ _____    ______ ____
ATOM      1  N   ALA M   1     123.115  83.688 115.173  0.00  0.00    +0.000 N 
ATOM      2  CA  ALA M   1     123.065  85.044 115.706  0.00  0.00    +0.000 C 
ATOM      3  C   ALA M   1     121.775  85.287 116.477  0.00  0.00    +0.000 C 
ATOM      4  O   ALA M   1     121.786  85.936 117.529  0.00  0.00    +0.000 OA
ATOM      5  CB  ALA M   1     123.212  86.060 114.574  0.00  0.00    +0.000 C 
ATOM      6  H   ALA M   1     123.988  83.555 114.663  0.00  0.00    +0.000 HD
ATOM      7  H   ALA M   1     122.327  83.541 114.542  0.00  0.00    +0.000 HD
ATOM      8  H   ALA M   1     123.065  83.019 115.941  0.00  0.00    +0.000 HD
TER 
REMARK  Name = /data/user_data/xianyang/t3-aimnet-affinity-balanced/L3/P40879/pocket.pdb
REMARK                            x       y       z     vdW  Elec       q    Type
REMARK                         _______ _______ _______ _____ _____    ______ ____
ATOM      1  N   ASN N   1     120.954  83.625 120.407  0.00  0.00    +0.000 N 
ATOM      2  CA  ASN N   1     121.398  84.247 121.644  0.00  0.00    +0.000 C 
ATOM      3  C   ASN N   1     120.488  85.388 122.075  0.00  0.00    +0.000 C 
ATOM      4  O   ASN N   1     120.936  86.292 122.789  0.00  0.00    +0.000 OA
ATOM      5  CB  ASN N   1     122.834  84.753 121.496  0.00  0.00    +0.000 C 
ATOM      6  CG  ASN N   1     123.650  83.911 120.539  0.00  0.00    +0.000 C 
ATOM      7  OD1 ASN N   1     123.882  82.726 120.778  0.00  0.00    +0.000 OA
ATOM      8  ND2 ASN N   1     124.091  84.519 119.445  0.00  0.00    +0.000 N 
ATOM      9  N   LEU N   2     119.227  85.366 121.655  0.00  0.00    +0.000 N 
ATOM     10  CA  LEU N   2     118.301  86.459 121.903  0.00  0.00    +0.000 C 
ATOM     11  C   LEU N   2     117.303  86.163 123.011  0.00  0.00    +0.000 C 
ATOM     12  O   LEU N   2     116.519  87.047 123.365  0.00  0.00    +0.000 OA
ATOM     13  CB  LEU N   2     117.544  86.803 120.620  0.00  0.00    +0.000 C 
ATOM     14  CG  LEU N   2     118.094  87.998 119.851  0.00  0.00    +0.000 C 
ATOM     15  CD2 LEU N   2     117.945  89.249 120.685  0.00  0.00    +0.000 C 
ATOM     16  CD1 LEU N   2     119.547  87.771 119.482  0.00  0.00    +0.000 C 
ATOM     17  H   ASN N   1     121.592  82.869 120.159  0.00  0.00    +0.000 HD
ATOM     18  H   ASN N   1     120.944  84.321 119.661  0.00  0.00    +0.000 HD
ATOM     19  H   ASN N   1     120.014  83.249 120.534  0.00  0.00    +0.000 HD
ATOM     20  H   ASN N   1     124.627  84.020 118.787  0.00  0.00    +0.000 HD
ATOM     21  H   ASN N   1     123.882  85.469 119.292  0.00  0.00    +0.000 HD
ATOM     22  H   LEU N   2     118.908  84.579 121.157  0.00  0.00    +0.000 HD
TER 
REMARK  Name = /data/user_data/xianyang/t3-aimnet-affinity-balanced/L3/P40879/pocket.pdb
REMARK                            x       y       z     vdW  Elec       q    Type
REMARK                         _______ _______ _______ _____ _____    ______ ____
ATOM      1  N   MET O   1     117.765  88.281 126.226  0.00  0.00    +0.000 N 
ATOM      2  CA  MET O   1     117.424  89.685 126.054  0.00  0.00    +0.000 C 
ATOM      3  C   MET O   1     115.935  89.894 125.825  0.00  0.00    +0.000 C 
ATOM      4  O   MET O   1     115.371  90.879 126.309  0.00  0.00    +0.000 OA
ATOM      5  CB  MET O   1     118.213  90.277 124.884  0.00  0.00    +0.000 C 
ATOM      6  CG  MET O   1     117.664  91.585 124.356  0.00  0.00    +0.000 C 
ATOM      7  SD  MET O   1     118.597  92.225 122.954  0.00  0.00    +0.000 S 
ATOM      8  CE  MET O   1     120.044  91.184 123.000  0.00  0.00    +0.000 C 
ATOM      9  H   MET O   1     118.770  88.191 126.376  0.00  0.00    +0.000 HD
ATOM     10  H   MET O   1     117.498  87.761 125.390  0.00  0.00    +0.000 HD
ATOM     11  H   MET O   1     117.266  87.906 127.033  0.00  0.00    +0.000 HD
TER 
REMARK  Name = /data/user_data/xianyang/t3-aimnet-affinity-balanced/L3/P40879/pocket.pdb
REMARK                            x       y       z     vdW  Elec       q    Type
REMARK                         _______ _______ _______ _____ _____    ______ ____
ATOM      1  N   LEU P   1     117.812 106.228 120.908  0.00  0.00    +0.000 N 
ATOM      2  CA  LEU P   1     118.610 106.365 122.120  0.00  0.00    +0.000 C 
ATOM      3  C   LEU P   1     118.625 107.810 122.602  0.00  0.00    +0.000 C 
ATOM      4  O   LEU P   1     118.423 108.082 123.791  0.00  0.00    +0.000 OA
ATOM      5  CB  LEU P   1     120.032 105.867 121.876  0.00  0.00    +0.000 C 
ATOM      6  CG  LEU P   1     120.951 105.995 123.087  0.00  0.00    +0.000 C 
ATOM      7  CD2 LEU P   1     120.778 104.800 123.998  0.00  0.00    +0.000 C 
ATOM      8  CD1 LEU P   1     122.396 106.138 122.652  0.00  0.00    +0.000 C 
ATOM      9  H   LEU P   1     117.817 105.254 120.606  0.00  0.00    +0.000 HD
ATOM     10  H   LEU P   1     118.207 106.814 120.173  0.00  0.00    +0.000 HD
ATOM     11  H   LEU P   1     116.853 106.520 121.097  0.00  0.00    +0.000 HD
TER 
