REMARK  Name = /data/user_data/xianyang/t3-aimnet-affinity-balanced/L3/Q96LB1/pocket.pdb
REMARK                            x       y       z     vdW  Elec       q    Type
REMARK                         _______ _______ _______ _____ _____    ______ ____
ATOM      1  N   LEU A   1      91.492  59.542  76.109  0.00  0.00    +0.000 N 
ATOM      2  CA  LEU A   1      91.872  58.576  77.135  0.00  0.00    +0.000 C 
ATOM      3  C   LEU A   1      90.814  57.503  77.361  0.00  0.00    +0.000 C 
ATOM      4  O   LEU A   1      91.163  56.341  77.588  0.00  0.00    +0.000 OA
ATOM      5  CB  LEU A   1      92.160  59.299  78.455  0.00  0.00    +0.000 C 
ATOM      6  CG  LEU A   1      93.324  60.293  78.512  0.00  0.00    +0.000 C 
ATOM      7  CD1 LEU A   1      92.828  61.732  78.424  0.00  0.00    +0.000 C 
ATOM      8  CD2 LEU A   1      94.140  60.080  79.777  0.00  0.00    +0.000 C 
ATOM      9  H   LEU A   1      91.302  59.052  75.235  0.00  0.00    +0.000 HD
ATOM     10  H   LEU A   1      92.253  60.206  75.969  0.00  0.00    +0.000 HD
ATOM     11  H   LEU A   1      90.655  60.043  76.407  0.00  0.00    +0.000 HD
TER 
REMARK  Name = /data/user_data/xianyang/t3-aimnet-affinity-balanced/L3/Q96LB1/pocket.pdb
REMARK                            x       y       z     vdW  Elec       q    Type
REMARK                         _______ _______ _______ _____ _____    ______ ____
ATOM      1  N   GLU B   1     102.437  79.487  83.570  0.00  0.00    +0.000 N 
ATOM      2  CA  GLU B   1     102.010  78.111  83.803  0.00  0.00    +0.000 C 
ATOM      3  C   GLU B   1     102.222  77.240  82.569  0.00  0.00    +0.000 C 
ATOM      4  O   GLU B   1     102.653  76.091  82.690  0.00  0.00    +0.000 OA
ATOM      5  CB  GLU B   1     100.544  78.099  84.234  0.00  0.00    +0.000 C 
ATOM      6  CG  GLU B   1      99.967  76.737  84.554  0.00  0.00    +0.000 C 
ATOM      7  CD  GLU B   1      99.122  76.192  83.422  0.00  0.00    +0.000 C 
ATOM      8  OE1 GLU B   1      98.536  77.002  82.678  0.00  0.00    +0.000 OA
ATOM      9  OE2 GLU B   1      99.039  74.958  83.275  0.00  0.00    +0.000 OA
ATOM     10  H   GLU B   1     103.416  79.495  83.282  0.00  0.00    +0.000 HD
ATOM     11  H   GLU B   1     102.331  80.026  84.429  0.00  0.00    +0.000 HD
ATOM     12  H   GLU B   1     101.863  79.901  82.836  0.00  0.00    +0.000 HD
TER 
REMARK  Name = /data/user_data/xianyang/t3-aimnet-affinity-balanced/L3/Q96LB1/pocket.pdb
REMARK                            x       y       z     vdW  Elec       q    Type
REMARK                         _______ _______ _______ _____ _____    ______ ____
ATOM      1  N   CYS C   1     104.981  74.032  82.373  0.00  0.00    +0.000 N 
ATOM      2  CA  CYS C   1     104.350  72.717  82.336  0.00  0.00    +0.000 C 
ATOM      3  C   CYS C   1     104.397  72.061  80.965  0.00  0.00    +0.000 C 
ATOM      4  O   CYS C   1     103.879  70.952  80.810  0.00  0.00    +0.000 OA
ATOM      5  CB  CYS C   1     102.890  72.791  82.797  0.00  0.00    +0.000 C 
ATOM      6  SG  CYS C   1     102.629  73.362  84.486  0.00  0.00    +0.000 S 
ATOM      7  N   CYS C   1     105.707  73.182  88.051  0.00  0.00    +0.000 N 
ATOM      8  CA  CYS C   1     104.390  73.084  87.435  0.00  0.00    +0.000 C 
ATOM      9  C   CYS C   1     103.297  72.906  88.479  0.00  0.00    +0.000 C 
ATOM     10  O   CYS C   1     102.284  73.612  88.435  0.00  0.00    +0.000 OA
ATOM     11  CB  CYS C   1     104.367  71.929  86.440  0.00  0.00    +0.000 C 
ATOM     12  SG  CYS C   1     102.798  71.687  85.609  0.00  0.00    +0.000 S 
ATOM     13  H   CYS C   1     105.949  73.953  82.062  0.00  0.00    +0.000 HD
ATOM     14  H   CYS C   1     104.958  74.393  83.327  0.00  0.00    +0.000 HD
ATOM     15  H   CYS C   1     104.476  74.669  81.756  0.00  0.00    +0.000 HD
ATOM     16  H   CYS C   1     106.414  73.300  87.325  0.00  0.00    +0.000 HD
ATOM     17  H   CYS C   1     105.900  72.330  88.578  0.00  0.00    +0.000 HD
ATOM     18  H   CYS C   1     105.729  73.984  88.681  0.00  0.00    +0.000 HD
TER 
REMARK  Name = /data/user_data/xianyang/t3-aimnet-affinity-balanced/L3/Q96LB1/pocket.pdb
REMARK                            x       y       z     vdW  Elec       q    Type
REMARK                         _______ _______ _______ _____ _____    ______ ____
ATOM      1  N   PHE D   1     103.131  73.268  77.978  0.00  0.00    +0.000 N 
ATOM      2  CA  PHE D   1     102.152  73.672  76.983  0.00  0.00    +0.000 C 
ATOM      3  C   PHE D   1     102.661  74.800  76.098  0.00  0.00    +0.000 C 
ATOM      4  O   PHE D   1     102.046  75.087  75.067  0.00  0.00    +0.000 OA
ATOM      5  CB  PHE D   1     100.848  74.075  77.669  0.00  0.00    +0.000 C 
ATOM      6  CG  PHE D   1     100.032  72.905  78.134  0.00  0.00    +0.000 A 
ATOM      7  CD2 PHE D   1     100.165  72.425  79.430  0.00  0.00    +0.000 A 
ATOM      8  CD1 PHE D   1      99.146  72.274  77.270  0.00  0.00    +0.000 A 
ATOM      9  CE2 PHE D   1      99.421  71.343  79.861  0.00  0.00    +0.000 A 
ATOM     10  CE1 PHE D   1      98.393  71.189  77.693  0.00  0.00    +0.000 A 
ATOM     11  CZ  PHE D   1      98.533  70.724  78.991  0.00  0.00    +0.000 A 
ATOM     12  H   PHE D   1     103.998  73.001  77.513  0.00  0.00    +0.000 HD
ATOM     13  H   PHE D   1     102.770  72.474  78.507  0.00  0.00    +0.000 HD
ATOM     14  H   PHE D   1     103.312  74.046  78.613  0.00  0.00    +0.000 HD
TER 
REMARK  Name = /data/user_data/xianyang/t3-aimnet-affinity-balanced/L3/Q96LB1/pocket.pdb
REMARK                            x       y       z     vdW  Elec       q    Type
REMARK                         _______ _______ _______ _____ _____    ______ ____
ATOM      1  N   GLY E   1     109.493  72.151  80.468  0.00  0.00    +0.000 N 
ATOM      2  CA  GLY E   1     109.012  72.528  81.783  0.00  0.00    +0.000 C 
ATOM      3  C   GLY E   1     109.153  71.440  82.824  0.00  0.00    +0.000 C 
ATOM      4  O   GLY E   1     108.986  70.256  82.521  0.00  0.00    +0.000 OA
ATOM      5  N   ASP E   2     109.430  71.829  84.064  0.00  0.00    +0.000 N 
ATOM      6  CA  ASP E   2     109.703  70.887  85.136  0.00  0.00    +0.000 C 
ATOM      7  C   ASP E   2     108.423  70.768  85.952  0.00  0.00    +0.000 C 
ATOM      8  O   ASP E   2     107.664  71.732  86.074  0.00  0.00    +0.000 OA
ATOM      9  CB  ASP E   2     110.935  71.373  85.961  0.00  0.00    +0.000 C 
ATOM     10  CG  ASP E   2     111.277  70.504  87.199  0.00  0.00    +0.000 C 
ATOM     11  OD2 ASP E   2     110.472  70.224  88.111  0.00  0.00    +0.000 OA
ATOM     12  OD1 ASP E   2     112.443  70.065  87.241  0.00  0.00    +0.000 OA
ATOM     13  N   SER E   3     108.196  69.576  86.512  0.00  0.00    +0.000 N 
ATOM     14  CA  SER E   3     106.966  69.319  87.257  0.00  0.00    +0.000 C 
ATOM     15  C   SER E   3     106.983  69.989  88.627  0.00  0.00    +0.000 C 
ATOM     16  O   SER E   3     105.926  70.347  89.164  0.00  0.00    +0.000 OA
ATOM     17  CB  SER E   3     106.753  67.813  87.398  0.00  0.00    +0.000 C 
ATOM     18  OG  SER E   3     105.805  67.525  88.409  0.00  0.00    +0.000 OA
ATOM     19  H   GLY E   1     109.366  72.931  79.823  0.00  0.00    +0.000 HD
ATOM     20  H   GLY E   1     108.968  71.343  80.133  0.00  0.00    +0.000 HD
ATOM     21  H   GLY E   1     110.483  71.914  80.523  0.00  0.00    +0.000 HD
ATOM     22  H   ASP E   2     109.451  72.793  84.264  0.00  0.00    +0.000 HD
ATOM     23  H   SER E   3     108.867  68.861  86.421  0.00  0.00    +0.000 HD
ATOM     24  H   SER E   3     106.126  67.864  89.259  0.00  0.00    +0.000 HD
TER 
REMARK  Name = /data/user_data/xianyang/t3-aimnet-affinity-balanced/L3/Q96LB1/pocket.pdb
REMARK                            x       y       z     vdW  Elec       q    Type
REMARK                         _______ _______ _______ _____ _____    ______ ____
ATOM      1  N   ASP F   1     100.630  75.740  89.524  0.00  0.00    +0.000 N 
ATOM      2  CA  ASP F   1      99.232  75.323  89.476  0.00  0.00    +0.000 C 
ATOM      3  C   ASP F   1      98.539  75.569  90.808  0.00  0.00    +0.000 C 
ATOM      4  O   ASP F   1      97.371  75.980  90.833  0.00  0.00    +0.000 OA
ATOM      5  CB  ASP F   1      99.116  73.846  89.105  0.00  0.00    +0.000 C 
ATOM      6  CG  ASP F   1      99.205  73.605  87.613  0.00  0.00    +0.000 C 
ATOM      7  OD1 ASP F   1      98.880  74.522  86.836  0.00  0.00    +0.000 OA
ATOM      8  OD2 ASP F   1      99.572  72.480  87.216  0.00  0.00    +0.000 OA
ATOM      9  H   ASP F   1     101.069  75.564  88.620  0.00  0.00    +0.000 HD
ATOM     10  H   ASP F   1     101.118  75.211  90.247  0.00  0.00    +0.000 HD
ATOM     11  H   ASP F   1     100.681  76.736  89.738  0.00  0.00    +0.000 HD
TER 
REMARK  Name = /data/user_data/xianyang/t3-aimnet-affinity-balanced/L3/Q96LB1/pocket.pdb
REMARK                            x       y       z     vdW  Elec       q    Type
REMARK                         _______ _______ _______ _____ _____    ______ ____
ATOM      1  N   GLN G   1      89.636  71.304  89.411  0.00  0.00    +0.000 N 
ATOM      2  CA  GLN G   1      90.050  70.014  88.883  0.00  0.00    +0.000 C 
ATOM      3  C   GLN G   1      91.192  70.122  87.887  0.00  0.00    +0.000 C 
ATOM      4  O   GLN G   1      91.830  69.108  87.600  0.00  0.00    +0.000 OA
ATOM      5  CB  GLN G   1      88.862  69.279  88.257  0.00  0.00    +0.000 C 
ATOM      6  CG  GLN G   1      88.452  69.752  86.892  0.00  0.00    +0.000 C 
ATOM      7  CD  GLN G   1      88.935  68.857  85.783  0.00  0.00    +0.000 C 
ATOM      8  OE1 GLN G   1      89.069  67.648  85.957  0.00  0.00    +0.000 OA
ATOM      9  NE2 GLN G   1      89.214  69.451  84.632  0.00  0.00    +0.000 N 
ATOM     10  N   TRP G   2      91.463  71.304  87.347  0.00  0.00    +0.000 N 
ATOM     11  CA  TRP G   2      92.609  71.497  86.477  0.00  0.00    +0.000 C 
ATOM     12  C   TRP G   2      93.844  71.964  87.230  0.00  0.00    +0.000 C 
ATOM     13  O   TRP G   2      94.962  71.785  86.744  0.00  0.00    +0.000 OA
ATOM     14  CB  TRP G   2      92.255  72.502  85.378  0.00  0.00    +0.000 C 
ATOM     15  CG  TRP G   2      93.256  72.607  84.286  0.00  0.00    +0.000 C 
ATOM     16  CD1 TRP G   2      94.186  73.584  84.130  0.00  0.00    +0.000 C 
ATOM     17  CD2 TRP G   2      93.429  71.708  83.187  0.00  0.00    +0.000 A 
ATOM     18  NE1 TRP G   2      94.936  73.352  83.006  0.00  0.00    +0.000 NA
ATOM     19  CE2 TRP G   2      94.490  72.205  82.407  0.00  0.00    +0.000 A 
ATOM     20  CE3 TRP G   2      92.792  70.530  82.787  0.00  0.00    +0.000 A 
ATOM     21  CZ2 TRP G   2      94.926  71.568  81.250  0.00  0.00    +0.000 A 
ATOM     22  CZ3 TRP G   2      93.229  69.897  81.642  0.00  0.00    +0.000 A 
ATOM     23  CH2 TRP G   2      94.286  70.417  80.887  0.00  0.00    +0.000 A 
ATOM     24  N   PHE G   3      93.689  72.538  88.421  0.00  0.00    +0.000 N 
ATOM     25  CA  PHE G   3      94.843  73.077  89.120  0.00  0.00    +0.000 C 
ATOM     26  C   PHE G   3      95.111  72.441  90.482  0.00  0.00    +0.000 C 
ATOM     27  O   PHE G   3      96.223  72.588  90.995  0.00  0.00    +0.000 OA
ATOM     28  CB  PHE G   3      94.694  74.592  89.282  0.00  0.00    +0.000 C 
ATOM     29  CG  PHE G   3      94.682  75.352  87.980  0.00  0.00    +0.000 A 
ATOM     30  CD2 PHE G   3      93.573  76.096  87.595  0.00  0.00    +0.000 A 
ATOM     31  CD1 PHE G   3      95.782  75.324  87.141  0.00  0.00    +0.000 A 
ATOM     32  CE2 PHE G   3      93.564  76.796  86.400  0.00  0.00    +0.000 A 
ATOM     33  CE1 PHE G   3      95.783  76.033  85.946  0.00  0.00    +0.000 A 
ATOM     34  CZ  PHE G   3      94.667  76.763  85.578  0.00  0.00    +0.000 A 
ATOM     35  H   GLN G   1      90.440  71.777  89.823  0.00  0.00    +0.000 HD
ATOM     36  H   GLN G   1      88.921  71.165  90.125  0.00  0.00    +0.000 HD
ATOM     37  H   GLN G   1      89.256  71.875  88.656  0.00  0.00    +0.000 HD
ATOM     38  H   GLN G   1      89.534  68.919  83.868  0.00  0.00    +0.000 HD
ATOM     39  H   GLN G   1      89.101  70.425  84.540  0.00  0.00    +0.000 HD
ATOM     40  H   TRP G   2      90.873  72.068  87.541  0.00  0.00    +0.000 HD
ATOM     41  H   PHE G   3      92.794  72.597  88.827  0.00  0.00    +0.000 HD
TER 
REMARK  Name = /data/user_data/xianyang/t3-aimnet-affinity-balanced/L3/Q96LB1/pocket.pdb
REMARK                            x       y       z     vdW  Elec       q    Type
REMARK                         _______ _______ _______ _____ _____    ______ ____
ATOM      1  N   LEU H   1      94.235  67.104  90.042  0.00  0.00    +0.000 N 
ATOM      2  CA  LEU H   1      95.181  66.267  89.325  0.00  0.00    +0.000 C 
ATOM      3  C   LEU H   1      96.560  66.208  89.975  0.00  0.00    +0.000 C 
ATOM      4  O   LEU H   1      97.406  65.436  89.514  0.00  0.00    +0.000 OA
ATOM      5  CB  LEU H   1      95.300  66.752  87.884  0.00  0.00    +0.000 C 
ATOM      6  CG  LEU H   1      93.991  66.558  87.122  0.00  0.00    +0.000 C 
ATOM      7  CD1 LEU H   1      94.068  67.167  85.736  0.00  0.00    +0.000 C 
ATOM      8  CD2 LEU H   1      93.624  65.088  87.047  0.00  0.00    +0.000 C 
ATOM      9  N   TRP H   2      96.822  66.994  91.018  0.00  0.00    +0.000 N 
ATOM     10  CA  TRP H   2      98.071  66.829  91.745  0.00  0.00    +0.000 C 
ATOM     11  C   TRP H   2      97.891  66.212  93.124  0.00  0.00    +0.000 C 
ATOM     12  O   TRP H   2      98.849  65.656  93.670  0.00  0.00    +0.000 OA
ATOM     13  CB  TRP H   2      98.792  68.166  91.890  0.00  0.00    +0.000 C 
ATOM     14  CG  TRP H   2      99.169  68.765  90.597  0.00  0.00    +0.000 C 
ATOM     15  CD1 TRP H   2      98.477  69.701  89.896  0.00  0.00    +0.000 C 
ATOM     16  CD2 TRP H   2     100.294  68.412  89.794  0.00  0.00    +0.000 A 
ATOM     17  NE1 TRP H   2      99.129  69.995  88.725  0.00  0.00    +0.000 NA
ATOM     18  CE2 TRP H   2     100.248  69.211  88.637  0.00  0.00    +0.000 A 
ATOM     19  CE3 TRP H   2     101.348  67.507  89.948  0.00  0.00    +0.000 A 
ATOM     20  CZ2 TRP H   2     101.214  69.134  87.640  0.00  0.00    +0.000 A 
ATOM     21  CZ3 TRP H   2     102.311  67.438  88.961  0.00  0.00    +0.000 A 
ATOM     22  CH2 TRP H   2     102.236  68.243  87.820  0.00  0.00    +0.000 A 
ATOM     23  H   LEU H   1      93.339  67.098  89.555  0.00  0.00    +0.000 HD
ATOM     24  H   LEU H   1      94.591  68.059  90.087  0.00  0.00    +0.000 HD
ATOM     25  H   LEU H   1      94.110  66.743  90.988  0.00  0.00    +0.000 HD
ATOM     26  H   TRP H   2      96.175  67.682  91.295  0.00  0.00    +0.000 HD
TER 
REMARK  Name = /data/user_data/xianyang/t3-aimnet-affinity-balanced/L3/Q96LB1/pocket.pdb
REMARK                            x       y       z     vdW  Elec       q    Type
REMARK                         _______ _______ _______ _____ _____    ______ ____
ATOM      1  N   LYS I   1      96.125  61.996  92.937  0.00  0.00    +0.000 N 
ATOM      2  CA  LYS I   1      97.145  61.091  92.339  0.00  0.00    +0.000 C 
ATOM      3  C   LYS I   1      96.550  59.964  91.485  0.00  0.00    +0.000 C 
ATOM      4  O   LYS I   1      97.087  58.856  91.415  0.00  0.00    +0.000 OA
ATOM      5  CB  LYS I   1      98.140  60.554  93.394  0.00  0.00    +0.000 C 
ATOM      6  CG  LYS I   1      97.672  59.650  94.554  0.00  0.00    +0.000 C 
ATOM      7  CD  LYS I   1      98.782  59.459  95.572  0.00  0.00    +0.000 C 
ATOM      8  CE  LYS I   1      98.291  58.709  96.801  0.00  0.00    +0.000 C 
ATOM      9  NZ  LYS I   1      97.339  59.524  97.606  0.00  0.00    +0.000 N 
ATOM     10  N   ASP I   2      95.453  60.265  90.791  0.00  0.00    +0.000 N 
ATOM     11  CA  ASP I   2      94.782  59.324  89.908  0.00  0.00    +0.000 C 
ATOM     12  C   ASP I   2      94.634  59.972  88.543  0.00  0.00    +0.000 C 
ATOM     13  O   ASP I   2      94.222  61.132  88.446  0.00  0.00    +0.000 OA
ATOM     14  CB  ASP I   2      93.414  58.921  90.459  0.00  0.00    +0.000 C 
ATOM     15  CG  ASP I   2      93.517  58.087  91.714  0.00  0.00    +0.000 C 
ATOM     16  OD1 ASP I   2      94.514  57.350  91.857  0.00  0.00    +0.000 OA
ATOM     17  OD2 ASP I   2      92.604  58.172  92.561  0.00  0.00    +0.000 OA
ATOM     18  N   SER I   3      94.972  59.226  87.496  0.00  0.00    +0.000 N 
ATOM     19  CA  SER I   3      95.008  59.766  86.146  0.00  0.00    +0.000 C 
ATOM     20  C   SER I   3      94.059  59.075  85.183  0.00  0.00    +0.000 C 
ATOM     21  O   SER I   3      93.741  59.644  84.138  0.00  0.00    +0.000 OA
ATOM     22  CB  SER I   3      96.434  59.681  85.584  0.00  0.00    +0.000 C 
ATOM     23  OG  SER I   3      96.517  60.236  84.285  0.00  0.00    +0.000 OA
ATOM     24  N   ASP I   4      93.595  57.870  85.506  0.00  0.00    +0.000 N 
ATOM     25  CA  ASP I   4      92.835  57.052  84.571  0.00  0.00    +0.000 C 
ATOM     26  C   ASP I   4      91.454  56.689  85.102  0.00  0.00    +0.000 C 
ATOM     27  O   ASP I   4      90.494  56.623  84.331  0.00  0.00    +0.000 OA
ATOM     28  CB  ASP I   4      93.632  55.780  84.235  0.00  0.00    +0.000 C 
ATOM     29  CG  ASP I   4      94.715  56.018  83.190  0.00  0.00    +0.000 C 
ATOM     30  OD1 ASP I   4      95.325  55.029  82.732  0.00  0.00    +0.000 OA
ATOM     31  OD2 ASP I   4      94.947  57.183  82.810  0.00  0.00    +0.000 OA
ATOM     32  H   LYS I   1      95.493  62.325  92.207  0.00  0.00    +0.000 HD
ATOM     33  H   LYS I   1      96.590  62.794  93.369  0.00  0.00    +0.000 HD
ATOM     34  H   LYS I   1      95.593  61.489  93.644  0.00  0.00    +0.000 HD
ATOM     35  H   LYS I   1      97.807  60.369  97.933  0.00  0.00    +0.000 HD
ATOM     36  H   LYS I   1      97.019  58.980  98.408  0.00  0.00    +0.000 HD
ATOM     37  H   LYS I   1      96.539  59.781  97.028  0.00  0.00    +0.000 HD
ATOM     38  H   ASP I   2      95.078  61.171  90.881  0.00  0.00    +0.000 HD
ATOM     39  H   SER I   3      95.205  58.280  87.639  0.00  0.00    +0.000 HD
ATOM     40  H   SER I   3      96.271  61.174  84.318  0.00  0.00    +0.000 HD
ATOM     41  H   ASP I   4      93.772  57.519  86.409  0.00  0.00    +0.000 HD
TER 
REMARK  Name = /data/user_data/xianyang/t3-aimnet-affinity-balanced/L3/Q96LB1/pocket.pdb
REMARK                            x       y       z     vdW  Elec       q    Type
REMARK                         _______ _______ _______ _____ _____    ______ ____
ATOM      1  N   PHE J   1      89.624  60.662  85.969  0.00  0.00    +0.000 N 
ATOM      2  CA  PHE J   1      89.786  61.801  85.059  0.00  0.00    +0.000 C 
ATOM      3  C   PHE J   1      88.775  61.803  83.922  0.00  0.00    +0.000 C 
ATOM      4  O   PHE J   1      88.271  62.871  83.553  0.00  0.00    +0.000 OA
ATOM      5  CB  PHE J   1      91.199  61.819  84.479  0.00  0.00    +0.000 C 
ATOM      6  CG  PHE J   1      91.459  62.975  83.554  0.00  0.00    +0.000 A 
ATOM      7  CD2 PHE J   1      91.662  64.252  84.060  0.00  0.00    +0.000 A 
ATOM      8  CD1 PHE J   1      91.529  62.779  82.175  0.00  0.00    +0.000 A 
ATOM      9  CE2 PHE J   1      91.907  65.322  83.210  0.00  0.00    +0.000 A 
ATOM     10  CE1 PHE J   1      91.772  63.839  81.320  0.00  0.00    +0.000 A 
ATOM     11  CZ  PHE J   1      91.966  65.113  81.839  0.00  0.00    +0.000 A 
ATOM     12  H   PHE J   1      88.677  60.662  86.349  0.00  0.00    +0.000 HD
ATOM     13  H   PHE J   1      90.296  60.738  86.732  0.00  0.00    +0.000 HD
ATOM     14  H   PHE J   1      89.786  59.794  85.459  0.00  0.00    +0.000 HD
TER 
