REMARK  Name = /data/user_data/xianyang/t3-aimnet-affinity-balanced/L1/P00338/pocket.pdb
REMARK                            x       y       z     vdW  Elec       q    Type
REMARK                         _______ _______ _______ _____ _____    ______ ____
ATOM      1  N   SER A   1      -4.603 -17.550 -52.000  0.00  0.00    +0.000 N 
ATOM      2  CA  SER A   1      -5.871 -17.317 -52.675  0.00  0.00    +0.000 C 
ATOM      3  C   SER A   1      -7.039 -17.171 -51.713  0.00  0.00    +0.000 C 
ATOM      4  O   SER A   1      -8.128 -16.828 -52.157  0.00  0.00    +0.000 OA
ATOM      5  CB  SER A   1      -6.182 -18.461 -53.652  0.00  0.00    +0.000 C 
ATOM      6  OG  SER A   1      -6.236 -19.704 -52.968  0.00  0.00    +0.000 OA
ATOM      7  N   GLY A   2      -6.838 -17.431 -50.435  0.00  0.00    +0.000 N 
ATOM      8  CA  GLY A   2      -7.910 -17.289 -49.455  0.00  0.00    +0.000 C 
ATOM      9  C   GLY A   2      -7.691 -16.165 -48.462  0.00  0.00    +0.000 C 
ATOM     10  O   GLY A   2      -8.578 -15.860 -47.647  0.00  0.00    +0.000 OA
ATOM     11  N   MET A   3      -6.521 -15.528 -48.526  0.00  0.00    +0.000 N 
ATOM     12  CA  MET A   3      -6.169 -14.476 -47.583  0.00  0.00    +0.000 C 
ATOM     13  C   MET A   3      -7.061 -13.257 -47.772  0.00  0.00    +0.000 C 
ATOM     14  O   MET A   3      -7.284 -12.793 -48.902  0.00  0.00    +0.000 OA
ATOM     15  CB  MET A   3      -4.707 -14.083 -47.779  0.00  0.00    +0.000 C 
ATOM     16  CG  MET A   3      -3.748 -15.092 -47.239  0.00  0.00    +0.000 C 
ATOM     17  SD  MET A   3      -2.046 -14.616 -47.616  0.00  0.00    +0.000 S 
ATOM     18  CE  MET A   3      -2.032 -12.932 -46.956  0.00  0.00    +0.000 C 
ATOM     19  N   ASN A   4      -7.590 -12.735 -46.666  0.00  0.00    +0.000 N 
ATOM     20  CA  ASN A   4      -8.546 -11.649 -46.803  0.00  0.00    +0.000 C 
ATOM     21  C   ASN A   4      -8.663 -10.868 -45.503  0.00  0.00    +0.000 C 
ATOM     22  O   ASN A   4      -8.345 -11.358 -44.412  0.00  0.00    +0.000 OA
ATOM     23  CB  ASN A   4      -9.929 -12.169 -47.228  0.00  0.00    +0.000 C 
ATOM     24  CG  ASN A   4     -10.653 -12.915 -46.103  0.00  0.00    +0.000 C 
ATOM     25  OD1 ASN A   4     -11.400 -12.318 -45.340  0.00  0.00    +0.000 OA
ATOM     26  ND2 ASN A   4     -10.424 -14.229 -46.007  0.00  0.00    +0.000 N 
ATOM     27  N   VAL A   5      -9.097  -9.625 -45.655  0.00  0.00    +0.000 N 
ATOM     28  CA  VAL A   5      -9.557  -8.779 -44.563  0.00  0.00    +0.000 C 
ATOM     29  C   VAL A   5     -10.985  -8.378 -44.898  0.00  0.00    +0.000 C 
ATOM     30  O   VAL A   5     -11.245  -7.919 -46.023  0.00  0.00    +0.000 OA
ATOM     31  CB  VAL A   5      -8.681  -7.532 -44.391  0.00  0.00    +0.000 C 
ATOM     32  CG2 VAL A   5      -9.325  -6.598 -43.361  0.00  0.00    +0.000 C 
ATOM     33  CG1 VAL A   5      -7.268  -7.920 -43.992  0.00  0.00    +0.000 C 
ATOM     34  N   ALA A   6     -11.909  -8.600 -43.944  0.00  0.00    +0.000 N 
ATOM     35  CA  ALA A   6     -13.317  -8.200 -44.089  0.00  0.00    +0.000 C 
ATOM     36  C   ALA A   6     -13.927  -8.754 -45.366  0.00  0.00    +0.000 C 
ATOM     37  O   ALA A   6     -14.763  -8.104 -46.012  0.00  0.00    +0.000 OA
ATOM     38  CB  ALA A   6     -13.463  -6.673 -44.035  0.00  0.00    +0.000 C 
ATOM     39  N   GLY A   7     -13.502  -9.952 -45.757  0.00  0.00    +0.000 N 
ATOM     40  CA  GLY A   7     -14.003 -10.590 -46.950  0.00  0.00    +0.000 C 
ATOM     41  C   GLY A   7     -13.470 -10.033 -48.251  0.00  0.00    +0.000 C 
ATOM     42  O   GLY A   7     -14.042 -10.316 -49.307  0.00  0.00    +0.000 OA
ATOM     43  N   VAL A   8     -12.412  -9.236 -48.212  0.00  0.00    +0.000 N 
ATOM     44  CA  VAL A   8     -11.769  -8.725 -49.413  0.00  0.00    +0.000 C 
ATOM     45  C   VAL A   8     -10.565  -9.608 -49.711  0.00  0.00    +0.000 C 
ATOM     46  O   VAL A   8      -9.633  -9.690 -48.900  0.00  0.00    +0.000 OA
ATOM     47  CB  VAL A   8     -11.338  -7.258 -49.246  0.00  0.00    +0.000 C 
ATOM     48  CG1 VAL A   8     -10.684  -6.759 -50.558  0.00  0.00    +0.000 C 
ATOM     49  CG2 VAL A   8     -12.522  -6.403 -48.857  0.00  0.00    +0.000 C 
ATOM     50  N   SER A   9     -10.584 -10.268 -50.864  0.00  0.00    +0.000 N 
ATOM     51  CA  SER A   9      -9.475 -11.135 -51.268  0.00  0.00    +0.000 C 
ATOM     52  CB  SER A   9      -8.227 -10.305 -51.560  0.00  0.00    +0.000 C 
ATOM     53  OG  SER A   9      -8.228  -9.456 -52.464  0.00  0.00    +0.000 OA
ATOM     54  C   SER A   9      -9.862 -11.936 -52.511  0.00  0.00    +0.000 C 
ATOM     55  O   SER A   9      -8.752 -12.654 -53.045  0.00  0.00    +0.000 OA
ATOM     56  H   SER A   1      -3.860 -17.639 -52.693  0.00  0.00    +0.000 HD
ATOM     57  H   SER A   1      -4.662 -18.409 -51.452  0.00  0.00    +0.000 HD
ATOM     58  H   SER A   1      -4.398 -16.765 -51.381  0.00  0.00    +0.000 HD
ATOM     59  H   SER A   1      -6.937 -19.674 -52.298  0.00  0.00    +0.000 HD
ATOM     60  H   GLY A   2      -5.947 -17.727 -50.137  0.00  0.00    +0.000 HD
ATOM     61  H   MET A   3      -5.878 -15.776 -49.229  0.00  0.00    +0.000 HD
ATOM     62  H   ASN A   4      -7.339 -13.077 -45.777  0.00  0.00    +0.000 HD
ATOM     63  H   ASN A   4      -9.815 -14.670 -46.642  0.00  0.00    +0.000 HD
ATOM     64  H   ASN A   4     -10.864 -14.755 -45.301  0.00  0.00    +0.000 HD
ATOM     65  H   VAL A   5      -9.109  -9.250 -46.565  0.00  0.00    +0.000 HD
ATOM     66  H   ALA A   6     -11.630  -9.049 -43.114  0.00  0.00    +0.000 HD
ATOM     67  H   GLY A   7     -12.825 -10.418 -45.216  0.00  0.00    +0.000 HD
ATOM     68  H   VAL A   8     -12.046  -8.979 -47.335  0.00  0.00    +0.000 HD
ATOM     69  H   SER A   9     -11.361 -10.172 -51.460  0.00  0.00    +0.000 HD
ATOM     70  H   SER A   9      -8.426 -13.284 -52.384  0.00  0.00    +0.000 HD
TER 
REMARK  Name = /data/user_data/xianyang/t3-aimnet-affinity-balanced/L1/P00338/pocket.pdb
REMARK                            x       y       z     vdW  Elec       q    Type
REMARK                         _______ _______ _______ _____ _____    ______ ____
ATOM      1  N   LYS B   1      -5.517 -11.524 -52.857  0.00  0.00    +0.000 N 
ATOM      2  CA  LYS B   1      -4.996 -11.929 -54.162  0.00  0.00    +0.000 C 
ATOM      3  C   LYS B   1      -5.771 -11.277 -55.305  0.00  0.00    +0.000 C 
ATOM      4  O   LYS B   1      -5.201 -10.975 -56.363  0.00  0.00    +0.000 OA
ATOM      5  CB  LYS B   1      -5.026 -13.447 -54.311  0.00  0.00    +0.000 C 
ATOM      6  CG  LYS B   1      -4.073 -13.935 -55.423  0.00  0.00    +0.000 C 
ATOM      7  CD  LYS B   1      -4.097 -15.446 -55.607  0.00  0.00    +0.000 C 
ATOM      8  CE  LYS B   1      -3.244 -15.850 -56.824  0.00  0.00    +0.000 C 
ATOM      9  NZ  LYS B   1      -1.831 -15.360 -56.704  0.00  0.00    +0.000 N 
ATOM     10  N   THR B   2      -7.066 -11.036 -55.118  0.00  0.00    +0.000 N 
ATOM     11  CA  THR B   2      -7.818 -10.341 -56.153  0.00  0.00    +0.000 C 
ATOM     12  C   THR B   2      -7.367  -8.895 -56.272  0.00  0.00    +0.000 C 
ATOM     13  O   THR B   2      -7.268  -8.360 -57.393  0.00  0.00    +0.000 OA
ATOM     14  CB  THR B   2      -9.310 -10.443 -55.869  0.00  0.00    +0.000 C 
ATOM     15  OG1 THR B   2      -9.699 -11.802 -56.101  0.00  0.00    +0.000 OA
ATOM     16  CG2 THR B   2     -10.091  -9.520 -56.775  0.00  0.00    +0.000 C 
ATOM     17  H   LYS B   1      -5.487 -10.507 -52.780  0.00  0.00    +0.000 HD
ATOM     18  H   LYS B   1      -4.946 -11.938 -52.120  0.00  0.00    +0.000 HD
ATOM     19  H   LYS B   1      -6.481 -11.844 -52.761  0.00  0.00    +0.000 HD
ATOM     20  H   LYS B   1      -1.397 -15.773 -55.878  0.00  0.00    +0.000 HD
ATOM     21  H   LYS B   1      -1.830 -14.344 -56.617  0.00  0.00    +0.000 HD
ATOM     22  H   LYS B   1      -1.306 -15.630 -57.535  0.00  0.00    +0.000 HD
ATOM     23  H   THR B   2      -7.511 -11.325 -54.289  0.00  0.00    +0.000 HD
ATOM     24  H   THR B   2      -9.505 -12.041 -57.021  0.00  0.00    +0.000 HD
TER 
REMARK  Name = /data/user_data/xianyang/t3-aimnet-affinity-balanced/L1/P00338/pocket.pdb
REMARK                            x       y       z     vdW  Elec       q    Type
REMARK                         _______ _______ _______ _____ _____    ______ ____
ATOM      1  N   PRO C   1      -2.951  -9.685 -57.877  0.00  0.00    +0.000 N 
ATOM      2  CA  PRO C   1      -2.910 -11.059 -58.422  0.00  0.00    +0.000 C 
ATOM      3  C   PRO C   1      -1.547 -11.732 -58.325  0.00  0.00    +0.000 C 
ATOM      4  O   PRO C   1      -1.494 -12.964 -58.294  0.00  0.00    +0.000 OA
ATOM      5  CB  PRO C   1      -3.338 -10.873 -59.890  0.00  0.00    +0.000 C 
ATOM      6  CG  PRO C   1      -4.191  -9.622 -59.873  0.00  0.00    +0.000 C 
ATOM      7  CD  PRO C   1      -3.526  -8.722 -58.839  0.00  0.00    +0.000 C 
ATOM      8  N   ASP C   2      -0.458 -10.981 -58.246  0.00  0.00    +0.000 N 
ATOM      9  CA  ASP C   2       0.862 -11.584 -58.108  0.00  0.00    +0.000 C 
ATOM     10  C   ASP C   2       1.209 -11.916 -56.659  0.00  0.00    +0.000 C 
ATOM     11  O   ASP C   2       2.285 -12.463 -56.407  0.00  0.00    +0.000 OA
ATOM     12  CB  ASP C   2       1.945 -10.660 -58.675  0.00  0.00    +0.000 C 
ATOM     13  CG  ASP C   2       2.133 -10.823 -60.168  0.00  0.00    +0.000 C 
ATOM     14  OD2 ASP C   2       1.752 -11.885 -60.727  0.00  0.00    +0.000 OA
ATOM     15  OD1 ASP C   2       2.683  -9.880 -60.787  0.00  0.00    +0.000 OA
ATOM     16  H   PRO C   1      -3.520  -9.684 -57.031  0.00  0.00    +0.000 HD
ATOM     17  H   PRO C   1      -1.993  -9.397 -57.679  0.00  0.00    +0.000 HD
ATOM     18  H   ASP C   2      -0.542 -10.001 -58.281  0.00  0.00    +0.000 HD
TER 
REMARK  Name = /data/user_data/xianyang/t3-aimnet-affinity-balanced/L1/P00338/pocket.pdb
REMARK                            x       y       z     vdW  Elec       q    Type
REMARK                         _______ _______ _______ _____ _____    ______ ____
ATOM      1  N   THR D   1     -10.372 -24.498 -51.653  0.00  0.00    +0.000 N 
ATOM      2  CA  THR D   1     -10.117 -24.281 -53.073  0.00  0.00    +0.000 C 
ATOM      3  C   THR D   1      -8.684 -23.770 -53.205  0.00  0.00    +0.000 C 
ATOM      4  O   THR D   1      -8.349 -22.689 -52.704  0.00  0.00    +0.000 OA
ATOM      5  CB  THR D   1     -11.110 -23.276 -53.644  0.00  0.00    +0.000 C 
ATOM      6  OG1 THR D   1     -11.082 -22.077 -52.855  0.00  0.00    +0.000 OA
ATOM      7  CG2 THR D   1     -12.518 -23.835 -53.626  0.00  0.00    +0.000 C 
ATOM      8  H   THR D   1     -11.324 -24.841 -51.527  0.00  0.00    +0.000 HD
ATOM      9  H   THR D   1     -10.258 -23.619 -51.149  0.00  0.00    +0.000 HD
ATOM     10  H   THR D   1      -9.712 -25.186 -51.290  0.00  0.00    +0.000 HD
ATOM     11  H   THR D   1     -11.337 -22.284 -51.942  0.00  0.00    +0.000 HD
TER 
REMARK  Name = /data/user_data/xianyang/t3-aimnet-affinity-balanced/L1/P00338/pocket.pdb
REMARK                            x       y       z     vdW  Elec       q    Type
REMARK                         _______ _______ _______ _____ _____    ______ ____
ATOM      1  N   THR E   1      -5.332 -22.883 -55.715  0.00  0.00    +0.000 N 
ATOM      2  CA  THR E   1      -4.843 -22.667 -57.070  0.00  0.00    +0.000 C 
ATOM      3  C   THR E   1      -3.934 -23.822 -57.474  0.00  0.00    +0.000 C 
ATOM      4  O   THR E   1      -3.502 -24.648 -56.644  0.00  0.00    +0.000 OA
ATOM      5  CB  THR E   1      -4.073 -21.349 -57.180  0.00  0.00    +0.000 C 
ATOM      6  OG1 THR E   1      -2.869 -21.451 -56.428  0.00  0.00    +0.000 OA
ATOM      7  CG2 THR E   1      -4.921 -20.183 -56.691  0.00  0.00    +0.000 C 
ATOM      8  H   THR E   1      -5.840 -23.767 -55.674  0.00  0.00    +0.000 HD
ATOM      9  H   THR E   1      -5.956 -22.120 -55.453  0.00  0.00    +0.000 HD
ATOM     10  H   THR E   1      -4.543 -22.914 -55.070  0.00  0.00    +0.000 HD
ATOM     11  H   THR E   1      -3.083 -21.620 -55.497  0.00  0.00    +0.000 HD
TER 
REMARK  Name = /data/user_data/xianyang/t3-aimnet-affinity-balanced/L1/P00338/pocket.pdb
REMARK                            x       y       z     vdW  Elec       q    Type
REMARK                         _______ _______ _______ _____ _____    ______ ____
ATOM      1  N   SER F   1     -20.269 -11.522 -51.954  0.00  0.00    +0.000 N 
ATOM      2  CA  SER F   1     -18.970 -11.788 -52.559  0.00  0.00    +0.000 C 
ATOM      3  C   SER F   1     -17.874 -11.977 -51.520  0.00  0.00    +0.000 C 
ATOM      4  O   SER F   1     -16.790 -12.431 -51.870  0.00  0.00    +0.000 OA
ATOM      5  CB  SER F   1     -18.598 -10.656 -53.533  0.00  0.00    +0.000 C 
ATOM      6  OG  SER F   1     -18.540  -9.414 -52.869  0.00  0.00    +0.000 OA
ATOM      7  N   GLY F   2     -18.147 -11.667 -50.253  0.00  0.00    +0.000 N 
ATOM      8  CA  GLY F   2     -17.143 -11.788 -49.216  0.00  0.00    +0.000 C 
ATOM      9  C   GLY F   2     -17.413 -12.907 -48.239  0.00  0.00    +0.000 C 
ATOM     10  O   GLY F   2     -16.604 -13.173 -47.359  0.00  0.00    +0.000 OA
ATOM     11  N   MET F   3     -18.546 -13.590 -48.393  0.00  0.00    +0.000 N 
ATOM     12  CA  MET F   3     -18.902 -14.648 -47.454  0.00  0.00    +0.000 C 
ATOM     13  C   MET F   3     -17.987 -15.849 -47.655  0.00  0.00    +0.000 C 
ATOM     14  O   MET F   3     -17.739 -16.278 -48.782  0.00  0.00    +0.000 OA
ATOM     15  CB  MET F   3     -20.347 -15.069 -47.677  0.00  0.00    +0.000 C 
ATOM     16  CG  MET F   3     -21.352 -14.035 -47.233  0.00  0.00    +0.000 C 
ATOM     17  SD  MET F   3     -23.018 -14.487 -47.738  0.00  0.00    +0.000 S 
ATOM     18  CE  MET F   3     -23.263 -16.027 -46.843  0.00  0.00    +0.000 C 
ATOM     19  N   ASN F   4     -17.504 -16.414 -46.552  0.00  0.00    +0.000 N 
ATOM     20  CA  ASN F   4     -16.532 -17.482 -46.692  0.00  0.00    +0.000 C 
ATOM     21  C   ASN F   4     -16.410 -18.269 -45.404  0.00  0.00    +0.000 C 
ATOM     22  O   ASN F   4     -16.792 -17.804 -44.328  0.00  0.00    +0.000 OA
ATOM     23  CB  ASN F   4     -15.146 -16.929 -47.093  0.00  0.00    +0.000 C 
ATOM     24  CG  ASN F   4     -14.440 -16.241 -45.932  0.00  0.00    +0.000 C 
ATOM     25  OD1 ASN F   4     -13.685 -16.862 -45.200  0.00  0.00    +0.000 OA
ATOM     26  ND2 ASN F   4     -14.691 -14.939 -45.774  0.00  0.00    +0.000 N 
ATOM     27  H   SER F   1     -20.968 -11.403 -52.687  0.00  0.00    +0.000 HD
ATOM     28  H   SER F   1     -20.216 -10.671 -51.394  0.00  0.00    +0.000 HD
ATOM     29  H   SER F   1     -20.533 -12.306 -51.357  0.00  0.00    +0.000 HD
ATOM     30  H   SER F   1     -17.862  -9.449 -52.176  0.00  0.00    +0.000 HD
ATOM     31  H   GLY F   2     -19.049 -11.350 -50.017  0.00  0.00    +0.000 HD
ATOM     32  H   MET F   3     -19.146 -13.380 -49.144  0.00  0.00    +0.000 HD
ATOM     33  H   ASN F   4     -17.799 -16.115 -45.662  0.00  0.00    +0.000 HD
ATOM     34  H   ASN F   4     -15.307 -14.478 -46.388  0.00  0.00    +0.000 HD
ATOM     35  H   ASN F   4     -14.260 -14.440 -45.043  0.00  0.00    +0.000 HD
TER 
REMARK  Name = /data/user_data/xianyang/t3-aimnet-affinity-balanced/L1/P00338/pocket.pdb
REMARK                            x       y       z     vdW  Elec       q    Type
REMARK                         _______ _______ _______ _____ _____    ______ ____
ATOM      1  N   GLY G   1     -11.519 -19.015 -45.652  0.00  0.00    +0.000 N 
ATOM      2  CA  GLY G   1     -11.039 -18.359 -46.852  0.00  0.00    +0.000 C 
ATOM      3  C   GLY G   1     -11.566 -18.914 -48.152  0.00  0.00    +0.000 C 
ATOM      4  O   GLY G   1     -11.043 -18.541 -49.210  0.00  0.00    +0.000 OA
ATOM      5  N   VAL G   2     -12.589 -19.775 -48.110  0.00  0.00    +0.000 N 
ATOM      6  CA  VAL G   2     -13.221 -20.319 -49.306  0.00  0.00    +0.000 C 
ATOM      7  C   VAL G   2     -14.477 -19.502 -49.593  0.00  0.00    +0.000 C 
ATOM      8  O   VAL G   2     -15.421 -19.495 -48.792  0.00  0.00    +0.000 OA
ATOM      9  CB  VAL G   2     -13.564 -21.805 -49.126  0.00  0.00    +0.000 C 
ATOM     10  CG1 VAL G   2     -14.206 -22.353 -50.410  0.00  0.00    +0.000 C 
ATOM     11  CG2 VAL G   2     -12.313 -22.610 -48.786  0.00  0.00    +0.000 C 
ATOM     12  N   SER G   3     -14.490 -18.804 -50.717  0.00  0.00    +0.000 N 
ATOM     13  CA  SER G   3     -15.639 -17.985 -51.075  0.00  0.00    +0.000 C 
ATOM     14  C   SER G   3     -16.856 -18.858 -51.348  0.00  0.00    +0.000 C 
ATOM     15  O   SER G   3     -16.818 -19.751 -52.209  0.00  0.00    +0.000 OA
ATOM     16  CB  SER G   3     -15.335 -17.138 -52.314  0.00  0.00    +0.000 C 
ATOM     17  OG  SER G   3     -16.558 -16.637 -52.844  0.00  0.00    +0.000 OA
ATOM     18  N   LEU G   4     -17.941 -18.600 -50.627  0.00  0.00    +0.000 N 
ATOM     19  CA  LEU G   4     -19.155 -19.355 -50.889  0.00  0.00    +0.000 C 
ATOM     20  C   LEU G   4     -19.719 -19.018 -52.267  0.00  0.00    +0.000 C 
ATOM     21  O   LEU G   4     -20.329 -19.880 -52.905  0.00  0.00    +0.000 OA
ATOM     22  CB  LEU G   4     -20.201 -19.087 -49.810  0.00  0.00    +0.000 C 
ATOM     23  CG  LEU G   4     -19.758 -19.309 -48.352  0.00  0.00    +0.000 C 
ATOM     24  CD2 LEU G   4     -20.975 -19.273 -47.408  0.00  0.00    +0.000 C 
ATOM     25  CD1 LEU G   4     -18.986 -20.600 -48.186  0.00  0.00    +0.000 C 
ATOM     26  H   GLY G   1     -11.107 -18.569 -44.833  0.00  0.00    +0.000 HD
ATOM     27  H   GLY G   1     -11.253 -19.999 -45.673  0.00  0.00    +0.000 HD
ATOM     28  H   GLY G   1     -12.535 -18.939 -45.606  0.00  0.00    +0.000 HD
ATOM     29  H   VAL G   2     -12.931 -20.054 -47.230  0.00  0.00    +0.000 HD
ATOM     30  H   SER G   3     -13.712 -18.839 -51.319  0.00  0.00    +0.000 HD
ATOM     31  H   SER G   3     -17.002 -16.094 -52.174  0.00  0.00    +0.000 HD
ATOM     32  H   LEU G   4     -17.923 -17.909 -49.926  0.00  0.00    +0.000 HD
TER 
REMARK  Name = /data/user_data/xianyang/t3-aimnet-affinity-balanced/L1/P00338/pocket.pdb
REMARK                            x       y       z     vdW  Elec       q    Type
REMARK                         _______ _______ _______ _____ _____    ______ ____
ATOM      1  N   THR H   1     -17.942 -18.352 -54.880  0.00  0.00    +0.000 N 
ATOM      2  CA  THR H   1     -17.132 -19.101 -55.835  0.00  0.00    +0.000 C 
ATOM      3  C   THR H   1     -17.648 -20.527 -55.990  0.00  0.00    +0.000 C 
ATOM      4  O   THR H   1     -17.714 -21.059 -57.109  0.00  0.00    +0.000 OA
ATOM      5  CB  THR H   1     -15.667 -19.097 -55.402  0.00  0.00    +0.000 C 
ATOM      6  OG1 THR H   1     -15.146 -17.769 -55.543  0.00  0.00    +0.000 OA
ATOM      7  CG2 THR H   1     -14.832 -20.053 -56.228  0.00  0.00    +0.000 C 
ATOM      8  H   THR H   1     -18.917 -18.362 -55.180  0.00  0.00    +0.000 HD
ATOM      9  H   THR H   1     -17.610 -17.389 -54.835  0.00  0.00    +0.000 HD
ATOM     10  H   THR H   1     -17.865 -18.782 -53.958  0.00  0.00    +0.000 HD
ATOM     11  H   THR H   1     -15.199 -17.498 -56.473  0.00  0.00    +0.000 HD
TER 
