REMARK  Name = /home/xianyang/aimnet2_score_pipelines/work/L1234-fixed-receptor-eint-20260921/L3/A0A1D8PKB4/prepared.pdb
REMARK                            x       y       z     vdW  Elec       q    Type
REMARK                         _______ _______ _______ _____ _____    ______ ____
ATOM      1  CH3 ACE A   1      33.693 -12.435 -20.216  0.00  0.00    +0.000 C 
ATOM      2  C   ACE A   1      32.185 -12.640 -20.355  0.00  0.00    +0.000 C 
ATOM      3  O   ACE A   1      31.428 -12.516 -19.390  0.00  0.00    +0.000 OA
ATOM      4  N   LYS A   2      31.749 -12.931 -21.577  0.00  0.00    +0.000 N 
ATOM      5  H   LYS A   2      32.429 -13.043 -22.315  0.00  0.00    +0.000 HD
ATOM      6  CA  LYS A   2      30.359 -13.270 -21.845  0.00  0.00    +0.000 C 
ATOM      7  C   LYS A   2      30.213 -14.773 -21.672  0.00  0.00    +0.000 C 
ATOM      8  O   LYS A   2      30.904 -15.552 -22.341  0.00  0.00    +0.000 OA
ATOM      9  CB  LYS A   2      29.947 -12.825 -23.253  0.00  0.00    +0.000 C 
ATOM     10  CG  LYS A   2      29.154 -13.851 -24.104  0.00  0.00    +0.000 C 
ATOM     11  CD  LYS A   2      27.678 -13.899 -23.679  0.00  0.00    +0.000 C 
ATOM     12  CE  LYS A   2      26.929 -15.053 -24.314  0.00  0.00    +0.000 C 
ATOM     13  NZ  LYS A   2      27.387 -16.288 -23.649  0.00  0.00    +0.000 N 
ATOM     14  HZ1 LYS A   2      26.656 -17.008 -23.683  0.00  0.00    +0.000 HD
ATOM     15  HZ2 LYS A   2      27.580 -16.143 -22.679  0.00  0.00    +0.000 HD
ATOM     16  HZ3 LYS A   2      28.210 -16.670 -24.095  0.00  0.00    +0.000 HD
ATOM     17  N   ILE A   3      29.314 -15.175 -20.778  0.00  0.00    +0.000 N 
ATOM     18  H   ILE A   3      28.886 -14.476 -20.186  0.00  0.00    +0.000 HD
ATOM     19  CA  ILE A   3      28.997 -16.574 -20.549  0.00  0.00    +0.000 C 
ATOM     20  C   ILE A   3      27.515 -16.859 -20.708  0.00  0.00    +0.000 C 
ATOM     21  O   ILE A   3      27.101 -18.012 -20.551  0.00  0.00    +0.000 OA
ATOM     22  CB  ILE A   3      29.491 -17.037 -19.162  0.00  0.00    +0.000 C 
ATOM     23  CG1 ILE A   3      28.541 -16.571 -18.053  0.00  0.00    +0.000 C 
ATOM     24  CG2 ILE A   3      30.923 -16.538 -18.904  0.00  0.00    +0.000 C 
ATOM     25  CD1 ILE A   3      28.879 -17.165 -16.679  0.00  0.00    +0.000 C 
ATOM     26  N   GLY A   4      26.710 -15.841 -21.044  0.00  0.00    +0.000 N 
ATOM     27  H   GLY A   4      27.098 -14.910 -20.953  0.00  0.00    +0.000 HD
ATOM     28  CA  GLY A   4      25.261 -15.892 -21.143  0.00  0.00    +0.000 C 
ATOM     29  C   GLY A   4      24.648 -17.166 -21.658  0.00  0.00    +0.000 C 
ATOM     30  O   GLY A   4      24.995 -17.651 -22.736  0.00  0.00    +0.000 OA
ATOM     31  N   GLU A   5      23.750 -17.726 -20.857  0.00  0.00    +0.000 N 
ATOM     32  H   GLU A   5      23.528 -17.286 -19.982  0.00  0.00    +0.000 HD
ATOM     33  CA  GLU A   5      22.945 -18.869 -21.259  0.00  0.00    +0.000 C 
ATOM     34  C   GLU A   5      21.474 -18.613 -20.950  0.00  0.00    +0.000 C 
ATOM     35  O   GLU A   5      20.808 -17.855 -21.663  0.00  0.00    +0.000 OA
ATOM     36  CB  GLU A   5      23.416 -20.140 -20.551  0.00  0.00    +0.000 C 
ATOM     37  CG  GLU A   5      24.801 -20.618 -20.945  0.00  0.00    +0.000 C 
ATOM     38  CD  GLU A   5      24.803 -21.426 -22.229  0.00  0.00    +0.000 C 
ATOM     39  OE1 GLU A   5      24.532 -20.848 -23.302  0.00  0.00    +0.000 OA
ATOM     40  OE2 GLU A   5      25.076 -22.644 -22.162  0.00  0.00    +0.000 OA
ATOM     41  N   GLY A   6      20.961 -19.254 -19.900  0.00  0.00    +0.000 N 
ATOM     42  H   GLY A   6      21.524 -19.935 -19.411  0.00  0.00    +0.000 HD
ATOM     43  CA  GLY A   6      19.577 -19.046 -19.499  0.00  0.00    +0.000 C 
ATOM     44  C   GLY A   6      18.613 -19.362 -20.625  0.00  0.00    +0.000 C 
ATOM     45  O   GLY A   6      18.837 -20.268 -21.435  0.00  0.00    +0.000 OA
ATOM     46  N   SER A   7      17.520 -18.609 -20.679  0.00  0.00    +0.000 N 
ATOM     47  H   SER A   7      17.383 -17.906 -19.972  0.00  0.00    +0.000 HD
ATOM     48  CA  SER A   7      16.599 -18.656 -21.815  0.00  0.00    +0.000 C 
ATOM     49  C   SER A   7      16.893 -17.496 -22.764  0.00  0.00    +0.000 C 
ATOM     50  O   SER A   7      16.060 -16.624 -23.016  0.00  0.00    +0.000 OA
ATOM     51  CB  SER A   7      15.153 -18.631 -21.328  0.00  0.00    +0.000 C 
ATOM     52  OG  SER A   7      14.904 -19.703 -20.435  0.00  0.00    +0.000 OA
ATOM     53  HG  SER A   7      15.252 -19.467 -19.561  0.00  0.00    +0.000 HD
ATOM     54  N   PHE A   8      18.123 -17.507 -23.279  0.00  0.00    +0.000 N 
ATOM     55  H   PHE A   8      18.736 -18.273 -23.020  0.00  0.00    +0.000 HD
ATOM     56  CA  PHE A   8      18.740 -16.409 -24.018  0.00  0.00    +0.000 C 
ATOM     57  C   PHE A   8      18.914 -15.158 -23.167  0.00  0.00    +0.000 C 
ATOM     58  O   PHE A   8      19.232 -14.088 -23.702  0.00  0.00    +0.000 OA
ATOM     59  CB  PHE A   8      17.967 -16.074 -25.302  0.00  0.00    +0.000 C 
ATOM     60  CG  PHE A   8      18.687 -16.470 -26.559  0.00  0.00    +0.000 A 
ATOM     61  CD1 PHE A   8      18.733 -17.795 -26.959  0.00  0.00    +0.000 A 
ATOM     62  CD2 PHE A   8      19.320 -15.517 -27.340  0.00  0.00    +0.000 A 
ATOM     63  CE1 PHE A   8      19.396 -18.163 -28.114  0.00  0.00    +0.000 A 
ATOM     64  CE2 PHE A   8      19.984 -15.878 -28.498  0.00  0.00    +0.000 A 
ATOM     65  CZ  PHE A   8      20.022 -17.203 -28.885  0.00  0.00    +0.000 A 
ATOM     66  N   GLY A   9      18.716 -15.264 -21.854  0.00  0.00    +0.000 N 
ATOM     67  H   GLY A   9      18.595 -16.193 -21.489  0.00  0.00    +0.000 HD
ATOM     68  CA  GLY A   9      19.040 -14.183 -20.948  0.00  0.00    +0.000 C 
ATOM     69  C   GLY A   9      20.525 -13.895 -20.977  0.00  0.00    +0.000 C 
ATOM     70  O   GLY A   9      21.340 -14.818 -20.904  0.00  0.00    +0.000 OA
ATOM     71  N   VAL A  10      20.890 -12.623 -21.093  0.00  0.00    +0.000 N 
ATOM     72  H   VAL A  10      20.183 -11.904 -21.140  0.00  0.00    +0.000 HD
ATOM     73  CA  VAL A  10      22.284 -12.246 -21.298  0.00  0.00    +0.000 C 
ATOM     74  C   VAL A  10      23.007 -12.267 -19.958  0.00  0.00    +0.000 C 
ATOM     75  O   VAL A  10      22.703 -11.467 -19.066  0.00  0.00    +0.000 OA
ATOM     76  CB  VAL A  10      22.386 -10.869 -21.963  0.00  0.00    +0.000 C 
ATOM     77  CG1 VAL A  10      23.732 -10.705 -22.640  0.00  0.00    +0.000 C 
ATOM     78  CG2 VAL A  10      21.254 -10.686 -22.965  0.00  0.00    +0.000 C 
ATOM     79  N   ILE A  11      23.961 -13.184 -19.813  0.00  0.00    +0.000 N 
ATOM     80  H   ILE A  11      24.120 -13.821 -20.574  0.00  0.00    +0.000 HD
ATOM     81  CA  ILE A  11      24.737 -13.347 -18.591  0.00  0.00    +0.000 C 
ATOM     82  C   ILE A  11      26.196 -13.053 -18.907  0.00  0.00    +0.000 C 
ATOM     83  O   ILE A  11      26.713 -13.478 -19.946  0.00  0.00    +0.000 OA
ATOM     84  CB  ILE A  11      24.586 -14.764 -17.999  0.00  0.00    +0.000 C 
ATOM     85  CG1 ILE A  11      23.184 -15.316 -18.272  0.00  0.00    +0.000 C 
ATOM     86  CG2 ILE A  11      24.928 -14.757 -16.524  0.00  0.00    +0.000 C 
ATOM     87  CD1 ILE A  11      22.080 -14.673 -17.450  0.00  0.00    +0.000 C 
ATOM     88  N   PHE A  12      26.866 -12.339 -18.006  0.00  0.00    +0.000 N 
ATOM     89  H   PHE A  12      26.457 -12.153 -17.108  0.00  0.00    +0.000 HD
ATOM     90  CA  PHE A  12      28.237 -11.906 -18.232  0.00  0.00    +0.000 C 
ATOM     91  C   PHE A  12      29.083 -12.117 -16.984  0.00  0.00    +0.000 C 
ATOM     92  O   PHE A  12      28.581 -12.095 -15.858  0.00  0.00    +0.000 OA
ATOM     93  CB  PHE A  12      28.294 -10.425 -18.643  0.00  0.00    +0.000 C 
ATOM     94  CG  PHE A  12      28.279 -10.205 -20.130  0.00  0.00    +0.000 A 
ATOM     95  CD1 PHE A  12      27.144 -10.473 -20.874  0.00  0.00    +0.000 A 
ATOM     96  CD2 PHE A  12      29.401  -9.718 -20.781  0.00  0.00    +0.000 A 
ATOM     97  CE1 PHE A  12      27.130 -10.269 -22.240  0.00  0.00    +0.000 A 
ATOM     98  CE2 PHE A  12      29.390  -9.509 -22.147  0.00  0.00    +0.000 A 
ATOM     99  CZ  PHE A  12      28.252  -9.786 -22.877  0.00  0.00    +0.000 A 
ATOM    100  N   NME A  13      30.379 -12.325 -17.202  0.00  0.00    +0.000 N 
ATOM    101  H   NME A  13      30.697 -12.051 -18.098  0.00  0.00    +0.000 HD
ATOM    102  C   NME A  13      31.343 -12.284 -16.114  0.00  0.00    +0.000 C 
TER 
REMARK  Name = /home/xianyang/aimnet2_score_pipelines/work/L1234-fixed-receptor-eint-20260921/L3/A0A1D8PKB4/prepared.pdb
REMARK                            x       y       z     vdW  Elec       q    Type
REMARK                         _______ _______ _______ _____ _____    ______ ____
ATOM      1  CH3 ACE B   1      34.356 -11.673  -9.617  0.00  0.00    +0.000 C 
ATOM      2  C   ACE B   1      32.871 -11.729  -9.300  0.00  0.00    +0.000 C 
ATOM      3  O   ACE B   1      32.459 -12.082  -8.192  0.00  0.00    +0.000 OA
ATOM      4  N   VAL B   2      32.059 -11.372 -10.296  0.00  0.00    +0.000 N 
ATOM      5  H   VAL B   2      32.449 -11.173 -11.204  0.00  0.00    +0.000 HD
ATOM      6  CA  VAL B   2      30.606 -11.367 -10.172  0.00  0.00    +0.000 C 
ATOM      7  C   VAL B   2      29.997 -11.906 -11.463  0.00  0.00    +0.000 C 
ATOM      8  O   VAL B   2      30.668 -12.050 -12.485  0.00  0.00    +0.000 OA
ATOM      9  CB  VAL B   2      30.040  -9.962  -9.866  0.00  0.00    +0.000 C 
ATOM     10  CG1 VAL B   2      30.508  -9.476  -8.500  0.00  0.00    +0.000 C 
ATOM     11  CG2 VAL B   2      30.437  -8.980 -10.953  0.00  0.00    +0.000 C 
ATOM     12  N   ALA B   3      28.702 -12.205 -11.396  0.00  0.00    +0.000 N 
ATOM     13  H   ALA B   3      28.213 -12.068 -10.515  0.00  0.00    +0.000 HD
ATOM     14  CA  ALA B   3      27.930 -12.680 -12.540  0.00  0.00    +0.000 C 
ATOM     15  C   ALA B   3      26.892 -11.617 -12.878  0.00  0.00    +0.000 C 
ATOM     16  O   ALA B   3      25.947 -11.399 -12.112  0.00  0.00    +0.000 OA
ATOM     17  CB  ALA B   3      27.270 -14.022 -12.236  0.00  0.00    +0.000 C 
ATOM     18  N   ILE B   4      27.067 -10.959 -14.021  0.00  0.00    +0.000 N 
ATOM     19  H   ILE B   4      27.837 -11.226 -14.617  0.00  0.00    +0.000 HD
ATOM     20  CA  ILE B   4      26.217  -9.850 -14.435  0.00  0.00    +0.000 C 
ATOM     21  C   ILE B   4      25.172 -10.370 -15.411  0.00  0.00    +0.000 C 
ATOM     22  O   ILE B   4      25.507 -11.062 -16.381  0.00  0.00    +0.000 OA
ATOM     23  CB  ILE B   4      27.047  -8.722 -15.070  0.00  0.00    +0.000 C 
ATOM     24  CG1 ILE B   4      28.253  -8.383 -14.193  0.00  0.00    +0.000 C 
ATOM     25  CG2 ILE B   4      26.192  -7.490 -15.271  0.00  0.00    +0.000 C 
ATOM     26  CD1 ILE B   4      29.185  -7.363 -14.817  0.00  0.00    +0.000 C 
ATOM     27  N   LYS B   5      23.909 -10.037 -15.159  0.00  0.00    +0.000 N 
ATOM     28  H   LYS B   5      23.708  -9.530 -14.300  0.00  0.00    +0.000 HD
ATOM     29  CA  LYS B   5      22.795 -10.466 -15.992  0.00  0.00    +0.000 C 
ATOM     30  C   LYS B   5      22.151  -9.253 -16.646  0.00  0.00    +0.000 C 
ATOM     31  O   LYS B   5      21.775  -8.298 -15.955  0.00  0.00    +0.000 OA
ATOM     32  CB  LYS B   5      21.759 -11.236 -15.170  0.00  0.00    +0.000 C 
ATOM     33  CG  LYS B   5      20.573 -11.736 -15.979  0.00  0.00    +0.000 C 
ATOM     34  CD  LYS B   5      19.673 -12.626 -15.137  0.00  0.00    +0.000 C 
ATOM     35  CE  LYS B   5      18.521 -13.195 -15.950  0.00  0.00    +0.000 C 
ATOM     36  NZ  LYS B   5      17.645 -14.075 -15.125  0.00  0.00    +0.000 N 
ATOM     37  HZ1 LYS B   5      18.040 -15.000 -14.978  0.00  0.00    +0.000 HD
ATOM     38  HZ2 LYS B   5      16.711 -14.195 -15.495  0.00  0.00    +0.000 HD
ATOM     39  HZ3 LYS B   5      17.535 -13.715 -14.162  0.00  0.00    +0.000 HD
ATOM     40  N   PHE B   6      22.029  -9.292 -17.970  0.00  0.00    +0.000 N 
ATOM     41  H   PHE B   6      22.451 -10.032 -18.470  0.00  0.00    +0.000 HD
ATOM     42  CA  PHE B   6      21.406  -8.219 -18.729  0.00  0.00    +0.000 C 
ATOM     43  C   PHE B   6      19.964  -8.578 -19.067  0.00  0.00    +0.000 C 
ATOM     44  O   PHE B   6      19.552  -9.740 -18.999  0.00  0.00    +0.000 OA
ATOM     45  CB  PHE B   6      22.177  -7.925 -20.019  0.00  0.00    +0.000 C 
ATOM     46  CG  PHE B   6      23.484  -7.208 -19.812  0.00  0.00    +0.000 A 
ATOM     47  CD1 PHE B   6      24.032  -7.052 -18.551  0.00  0.00    +0.000 A 
ATOM     48  CD2 PHE B   6      24.171  -6.696 -20.900  0.00  0.00    +0.000 A 
ATOM     49  CE1 PHE B   6      25.237  -6.392 -18.387  0.00  0.00    +0.000 A 
ATOM     50  CE2 PHE B   6      25.370  -6.036 -20.740  0.00  0.00    +0.000 A 
ATOM     51  CZ  PHE B   6      25.903  -5.886 -19.480  0.00  0.00    +0.000 A 
ATOM     52  N   NME B   7      19.202  -7.556 -19.455  0.00  0.00    +0.000 N 
ATOM     53  H   NME B   7      19.576  -6.623 -19.349  0.00  0.00    +0.000 HD
ATOM     54  C   NME B   7      17.807  -7.716 -19.842  0.00  0.00    +0.000 C 
TER 
REMARK  Name = /home/xianyang/aimnet2_score_pipelines/work/L1234-fixed-receptor-eint-20260921/L3/A0A1D8PKB4/prepared.pdb
REMARK                            x       y       z     vdW  Elec       q    Type
REMARK                         _______ _______ _______ _____ _____    ______ ____
ATOM      1  CH3 ACE C   1      10.014  -8.256 -17.650  0.00  0.00    +0.000 C 
ATOM      2  C   ACE C   1      10.053  -9.232 -16.481  0.00  0.00    +0.000 C 
ATOM      3  O   ACE C   1       9.014  -9.730 -16.039  0.00  0.00    +0.000 OA
ATOM      4  N   GLN C   2      11.258  -9.502 -15.976  0.00  0.00    +0.000 N 
ATOM      5  H   GLN C   2      12.057  -9.086 -16.418  0.00  0.00    +0.000 HD
ATOM      6  CA  GLN C   2      11.419 -10.478 -14.903  0.00  0.00    +0.000 C 
ATOM      7  C   GLN C   2      12.581 -10.130 -13.979  0.00  0.00    +0.000 C 
ATOM      8  O   GLN C   2      12.548 -10.455 -12.788  0.00  0.00    +0.000 OA
ATOM      9  CB  GLN C   2      11.628 -11.879 -15.485  0.00  0.00    +0.000 C 
ATOM     10  CG  GLN C   2      12.988 -12.076 -16.142  0.00  0.00    +0.000 C 
ATOM     11  CD  GLN C   2      13.175 -13.462 -16.726  0.00  0.00    +0.000 C 
ATOM     12  OE1 GLN C   2      12.355 -14.356 -16.516  0.00  0.00    +0.000 OA
ATOM     13  NE2 GLN C   2      14.260 -13.645 -17.469  0.00  0.00    +0.000 N 
ATOM     14 HE21 GLN C   2      14.817 -12.867 -17.763  0.00  0.00    +0.000 HD
ATOM     15 HE22 GLN C   2      14.318 -14.558 -17.890  0.00  0.00    +0.000 HD
ATOM     16  N   LEU C   3      13.612  -9.473 -14.519  0.00  0.00    +0.000 N 
ATOM     17  H   LEU C   3      13.614  -9.276 -15.504  0.00  0.00    +0.000 HD
ATOM     18  CA  LEU C   3      14.832  -9.231 -13.758  0.00  0.00    +0.000 C 
ATOM     19  C   LEU C   3      14.596  -8.335 -12.550  0.00  0.00    +0.000 C 
ATOM     20  O   LEU C   3      15.389  -8.370 -11.604  0.00  0.00    +0.000 OA
ATOM     21  CB  LEU C   3      15.901  -8.619 -14.665  0.00  0.00    +0.000 C 
ATOM     22  CG  LEU C   3      17.334  -8.694 -14.139  0.00  0.00    +0.000 C 
ATOM     23  CD1 LEU C   3      17.584 -10.068 -13.547  0.00  0.00    +0.000 C 
ATOM     24  CD2 LEU C   3      18.322  -8.404 -15.257  0.00  0.00    +0.000 C 
ATOM     25  N   ARG C   4      13.532  -7.532 -12.571  0.00  0.00    +0.000 N 
ATOM     26  H   ARG C   4      12.912  -7.582 -13.362  0.00  0.00    +0.000 HD
ATOM     27  CA  ARG C   4      13.188  -6.704 -11.422  0.00  0.00    +0.000 C 
ATOM     28  C   ARG C   4      12.854  -7.566 -10.210  0.00  0.00    +0.000 C 
ATOM     29  O   ARG C   4      13.405  -7.368  -9.121  0.00  0.00    +0.000 OA
ATOM     30  CB  ARG C   4      12.017  -5.794 -11.793  0.00  0.00    +0.000 C 
ATOM     31  CG  ARG C   4      11.514  -4.898 -10.683  0.00  0.00    +0.000 C 
ATOM     32  CD  ARG C   4      10.243  -4.208 -11.134  0.00  0.00    +0.000 C 
ATOM     33  NE  ARG C   4      10.450  -3.431 -12.349  0.00  0.00    +0.000 N 
ATOM     34  HE  ARG C   4      10.162  -3.847 -13.221  0.00  0.00    +0.000 HD
ATOM     35  CZ  ARG C   4      10.903  -2.186 -12.371  0.00  0.00    +0.000 C 
ATOM     36  NH1 ARG C   4      11.220  -1.543 -11.257  0.00  0.00    +0.000 N 
ATOM     37 HH11 ARG C   4      11.543  -0.592 -11.307  0.00  0.00    +0.000 HD
ATOM     38 HH12 ARG C   4      11.146  -2.004 -10.376  0.00  0.00    +0.000 HD
ATOM     39  NH2 ARG C   4      11.043  -1.569 -13.539  0.00  0.00    +0.000 N 
ATOM     40 HH21 ARG C   4      11.032  -2.115 -14.393  0.00  0.00    +0.000 HD
ATOM     41 HH22 ARG C   4      11.251  -0.584 -13.570  0.00  0.00    +0.000 HD
ATOM     42  N   ASP C   5      11.967  -8.547 -10.389  0.00  0.00    +0.000 N 
ATOM     43  H   ASP C   5      11.569  -8.719 -11.298  0.00  0.00    +0.000 HD
ATOM     44  CA  ASP C   5      11.517  -9.368  -9.271  0.00  0.00    +0.000 C 
ATOM     45  C   ASP C   5      12.549 -10.408  -8.858  0.00  0.00    +0.000 C 
ATOM     46  O   ASP C   5      12.556 -10.835  -7.698  0.00  0.00    +0.000 OA
ATOM     47  CB  ASP C   5      10.194 -10.049  -9.620  0.00  0.00    +0.000 C 
ATOM     48  CG  ASP C   5       9.024  -9.083  -9.613  0.00  0.00    +0.000 C 
ATOM     49  OD1 ASP C   5       9.221  -7.911  -9.225  0.00  0.00    +0.000 OA
ATOM     50  OD2 ASP C   5       7.908  -9.496  -9.997  0.00  0.00    +0.000 OA
ATOM     51  N   GLU C   6      13.417 -10.836  -9.778  0.00  0.00    +0.000 N 
ATOM     52  H   GLU C   6      13.285 -10.583 -10.751  0.00  0.00    +0.000 HD
ATOM     53  CA  GLU C   6      14.486 -11.752  -9.392  0.00  0.00    +0.000 C 
ATOM     54  C   GLU C   6      15.478 -11.078  -8.455  0.00  0.00    +0.000 C 
ATOM     55  O   GLU C   6      16.027 -11.729  -7.558  0.00  0.00    +0.000 OA
ATOM     56  CB  GLU C   6      15.202 -12.287 -10.634  0.00  0.00    +0.000 C 
ATOM     57  CG  GLU C   6      16.161 -13.433 -10.349  0.00  0.00    +0.000 C 
ATOM     58  CD  GLU C   6      16.634 -14.132 -11.610  0.00  0.00    +0.000 C 
ATOM     59  OE1 GLU C   6      17.322 -13.489 -12.431  0.00  0.00    +0.000 OA
ATOM     60  OE2 GLU C   6      16.309 -15.326 -11.782  0.00  0.00    +0.000 OA
ATOM     61  N   TYR C   7      15.713  -9.778  -8.651  0.00  0.00    +0.000 N 
ATOM     62  H   TYR C   7      15.288  -9.310  -9.444  0.00  0.00    +0.000 HD
ATOM     63  CA  TYR C   7      16.547  -9.014  -7.732  0.00  0.00    +0.000 C 
ATOM     64  C   TYR C   7      15.962  -9.020  -6.327  0.00  0.00    +0.000 C 
ATOM     65  O   TYR C   7      16.691  -9.190  -5.342  0.00  0.00    +0.000 OA
ATOM     66  CB  TYR C   7      16.700  -7.588  -8.260  0.00  0.00    +0.000 C 
ATOM     67  CG  TYR C   7      17.342  -6.601  -7.313  0.00  0.00    +0.000 A 
ATOM     68  CD1 TYR C   7      18.675  -6.714  -6.949  0.00  0.00    +0.000 A 
ATOM     69  CD2 TYR C   7      16.613  -5.529  -6.813  0.00  0.00    +0.000 A 
ATOM     70  CE1 TYR C   7      19.262  -5.792  -6.098  0.00  0.00    +0.000 A 
ATOM     71  CE2 TYR C   7      17.186  -4.606  -5.966  0.00  0.00    +0.000 A 
ATOM     72  CZ  TYR C   7      18.517  -4.747  -5.613  0.00  0.00    +0.000 A 
ATOM     73  OH  TYR C   7      19.097  -3.829  -4.763  0.00  0.00    +0.000 OA
ATOM     74  HH  TYR C   7      18.793  -2.937  -4.969  0.00  0.00    +0.000 HD
ATOM     75  N   ARG C   8      14.643  -8.855  -6.215  0.00  0.00    +0.000 N 
ATOM     76  H   ARG C   8      14.089  -8.768  -7.060  0.00  0.00    +0.000 HD
ATOM     77  CA  ARG C   8      14.004  -8.888  -4.906  0.00  0.00    +0.000 C 
ATOM     78  C   ARG C   8      14.006 -10.292  -4.319  0.00  0.00    +0.000 C 
ATOM     79  O   ARG C   8      13.956 -10.449  -3.094  0.00  0.00    +0.000 OA
ATOM     80  CB  ARG C   8      12.576  -8.353  -5.009  0.00  0.00    +0.000 C 
ATOM     81  CG  ARG C   8      12.366  -7.396  -6.170  0.00  0.00    +0.000 C 
ATOM     82  CD  ARG C   8      11.116  -6.559  -5.987  0.00  0.00    +0.000 C 
ATOM     83  NE  ARG C   8      10.969  -5.550  -7.030  0.00  0.00    +0.000 N 
ATOM     84  HE  ARG C   8      11.135  -5.870  -7.971  0.00  0.00    +0.000 HD
ATOM     85  CZ  ARG C   8      10.507  -4.325  -6.820  0.00  0.00    +0.000 C 
ATOM     86  NH1 ARG C   8      10.182  -3.908  -5.612  0.00  0.00    +0.000 N 
ATOM     87 HH11 ARG C   8      10.230  -4.563  -4.853  0.00  0.00    +0.000 HD
ATOM     88 HH12 ARG C   8       9.840  -2.979  -5.454  0.00  0.00    +0.000 HD
ATOM     89  NH2 ARG C   8      10.370  -3.496  -7.848  0.00  0.00    +0.000 N 
ATOM     90 HH21 ARG C   8      10.447  -3.920  -8.747  0.00  0.00    +0.000 HD
ATOM     91 HH22 ARG C   8       9.924  -2.610  -7.697  0.00  0.00    +0.000 HD
ATOM     92  N   THR C   9      14.075 -11.320  -5.169  0.00  0.00    +0.000 N 
ATOM     93  H   THR C   9      14.097 -11.141  -6.162  0.00  0.00    +0.000 HD
ATOM     94  CA  THR C   9      14.069 -12.692  -4.673  0.00  0.00    +0.000 C 
ATOM     95  C   THR C   9      15.369 -13.026  -3.951  0.00  0.00    +0.000 C 
ATOM     96  O   THR C   9      15.347 -13.654  -2.886  0.00  0.00    +0.000 OA
ATOM     97  CB  THR C   9      13.833 -13.668  -5.825  0.00  0.00    +0.000 C 
ATOM     98  OG1 THR C   9      12.829 -13.140  -6.699  0.00  0.00    +0.000 OA
ATOM     99  HG1 THR C   9      12.953 -12.206  -6.964  0.00  0.00    +0.000 HD
ATOM    100  CG2 THR C   9      13.365 -15.015  -5.291  0.00  0.00    +0.000 C 
ATOM    101  N   TYR C  10      16.510 -12.622  -4.515  0.00  0.00    +0.000 N 
ATOM    102  H   TYR C  10      16.493 -12.205  -5.440  0.00  0.00    +0.000 HD
ATOM    103  CA  TYR C  10      17.790 -12.877  -3.860  0.00  0.00    +0.000 C 
ATOM    104  C   TYR C  10      17.886 -12.130  -2.538  0.00  0.00    +0.000 C 
ATOM    105  O   TYR C  10      18.435 -12.651  -1.559  0.00  0.00    +0.000 OA
ATOM    106  CB  TYR C  10      18.945 -12.482  -4.782  0.00  0.00    +0.000 C 
ATOM    107  CG  TYR C  10      19.168 -13.420  -5.949  0.00  0.00    +0.000 A 
ATOM    108  CD1 TYR C  10      19.742 -14.670  -5.761  0.00  0.00    +0.000 A 
ATOM    109  CD2 TYR C  10      18.822 -13.046  -7.241  0.00  0.00    +0.000 A 
ATOM    110  CE1 TYR C  10      19.953 -15.528  -6.825  0.00  0.00    +0.000 A 
ATOM    111  CE2 TYR C  10      19.031 -13.897  -8.311  0.00  0.00    +0.000 A 
ATOM    112  CZ  TYR C  10      19.596 -15.136  -8.098  0.00  0.00    +0.000 A 
ATOM    113  OH  TYR C  10      19.807 -15.987  -9.159  0.00  0.00    +0.000 OA
ATOM    114  HH  TYR C  10      20.482 -15.614  -9.738  0.00  0.00    +0.000 HD
ATOM    115  N   LYS C  11      17.361 -10.902  -2.492  0.00  0.00    +0.000 N 
ATOM    116  H   LYS C  11      16.930 -10.523  -3.325  0.00  0.00    +0.000 HD
ATOM    117  CA  LYS C  11      17.350 -10.147  -1.243  0.00  0.00    +0.000 C 
ATOM    118  C   LYS C  11      16.511 -10.846  -0.180  0.00  0.00    +0.000 C 
ATOM    119  O   LYS C  11      16.867 -10.836   1.004  0.00  0.00    +0.000 OA
ATOM    120  CB  LYS C  11      16.827  -8.732  -1.486  0.00  0.00    +0.000 C 
ATOM    121  CG  LYS C  11      17.811  -7.801  -2.177  0.00  0.00    +0.000 C 
ATOM    122  CD  LYS C  11      19.098  -7.613  -1.386  0.00  0.00    +0.000 C 
ATOM    123  CE  LYS C  11      19.635  -6.214  -1.596  0.00  0.00    +0.000 C 
ATOM    124  NZ  LYS C  11      19.316  -5.678  -2.933  0.00  0.00    +0.000 N 
ATOM    125  HZ1 LYS C  11      19.694  -6.272  -3.658  0.00  0.00    +0.000 HD
ATOM    126  HZ2 LYS C  11      18.318  -5.645  -3.081  0.00  0.00    +0.000 HD
ATOM    127  HZ3 LYS C  11      19.671  -4.740  -3.090  0.00  0.00    +0.000 HD
ATOM    128  N   NME C  12      15.390 -11.453  -0.582  0.00  0.00    +0.000 N 
ATOM    129  H   NME C  12      15.133 -11.440  -1.560  0.00  0.00    +0.000 HD
ATOM    130  C   NME C  12      14.547 -12.166   0.375  0.00  0.00    +0.000 C 
TER 
REMARK  Name = /home/xianyang/aimnet2_score_pipelines/work/L1234-fixed-receptor-eint-20260921/L3/A0A1D8PKB4/prepared.pdb
REMARK                            x       y       z     vdW  Elec       q    Type
REMARK                         _______ _______ _______ _____ _____    ______ ____
ATOM      1  CH3 ACE D   1      23.715 -21.614  -1.336  0.00  0.00    +0.000 C 
ATOM      2  C   ACE D   1      22.969 -20.604  -2.182  0.00  0.00    +0.000 C 
ATOM      3  O   ACE D   1      22.600 -20.929  -3.319  0.00  0.00    +0.000 OA
ATOM      4  N   ILE D   2      22.734 -19.402  -1.673  0.00  0.00    +0.000 N 
ATOM      5  H   ILE D   2      23.101 -19.172  -0.763  0.00  0.00    +0.000 HD
ATOM      6  CA  ILE D   2      22.062 -18.341  -2.418  0.00  0.00    +0.000 C 
ATOM      7  C   ILE D   2      23.046 -17.199  -2.602  0.00  0.00    +0.000 C 
ATOM      8  O   ILE D   2      23.540 -16.640  -1.618  0.00  0.00    +0.000 OA
ATOM      9  CB  ILE D   2      20.786 -17.852  -1.709  0.00  0.00    +0.000 C 
ATOM     10  CG1 ILE D   2      19.741 -18.967  -1.662  0.00  0.00    +0.000 C 
ATOM     11  CG2 ILE D   2      20.234 -16.620  -2.410  0.00  0.00    +0.000 C 
ATOM     12  CD1 ILE D   2      19.408 -19.547  -3.019  0.00  0.00    +0.000 C 
ATOM     13  N   PRO D   3      23.370 -16.806  -3.834  0.00  0.00    +0.000 N 
ATOM     14  CA  PRO D   3      24.314 -15.704  -4.029  0.00  0.00    +0.000 C 
ATOM     15  C   PRO D   3      23.744 -14.383  -3.539  0.00  0.00    +0.000 C 
ATOM     16  O   PRO D   3      22.534 -14.146  -3.576  0.00  0.00    +0.000 OA
ATOM     17  CB  PRO D   3      24.533 -15.688  -5.546  0.00  0.00    +0.000 C 
ATOM     18  CG  PRO D   3      23.308 -16.322  -6.110  0.00  0.00    +0.000 C 
ATOM     19  CD  PRO D   3      22.882 -17.356  -5.110  0.00  0.00    +0.000 C 
ATOM     20  N   ASN D   4      24.641 -13.518  -3.072  0.00  0.00    +0.000 N 
ATOM     21  H   ASN D   4      25.629 -13.755  -3.092  0.00  0.00    +0.000 HD
ATOM     22  CA  ASN D   4      24.242 -12.228  -2.529  0.00  0.00    +0.000 C 
ATOM     23  C   ASN D   4      23.923 -11.252  -3.653  0.00  0.00    +0.000 C 
ATOM     24  O   ASN D   4      24.693 -11.116  -4.608  0.00  0.00    +0.000 OA
ATOM     25  CB  ASN D   4      25.344 -11.657  -1.637  0.00  0.00    +0.000 C 
ATOM     26  CG  ASN D   4      25.374 -12.298  -0.266  0.00  0.00    +0.000 C 
ATOM     27  OD1 ASN D   4      24.377 -12.854   0.191  0.00  0.00    +0.000 OA
ATOM     28  ND2 ASN D   4      26.520 -12.217   0.402  0.00  0.00    +0.000 N 
ATOM     29 HD21 ASN D   4      26.545 -12.674   1.294  0.00  0.00    +0.000 HD
ATOM     30 HD22 ASN D   4      27.343 -11.892  -0.074  0.00  0.00    +0.000 HD
ATOM     31  N   NME D   5      22.783 -10.574  -3.536  0.00  0.00    +0.000 N 
ATOM     32  H   NME D   5      22.166 -10.810  -2.774  0.00  0.00    +0.000 HD
ATOM     33  C   NME D   5      22.405  -9.536  -4.486  0.00  0.00    +0.000 C 
TER 
REMARK  Name = /home/xianyang/aimnet2_score_pipelines/work/L1234-fixed-receptor-eint-20260921/L3/A0A1D8PKB4/prepared.pdb
REMARK                            x       y       z     vdW  Elec       q    Type
REMARK                         _______ _______ _______ _____ _____    ______ ____
ATOM      1  CH3 ACE E   1      18.206  -4.034 -16.802  0.00  0.00    +0.000 C 
ATOM      2  C   ACE E   1      19.373  -4.916 -16.379  0.00  0.00    +0.000 C 
ATOM      3  O   ACE E   1      19.663  -5.925 -17.030  0.00  0.00    +0.000 OA
ATOM      4  N   ILE E   2      20.040  -4.535 -15.292  0.00  0.00    +0.000 N 
ATOM      5  H   ILE E   2      19.711  -3.746 -14.759  0.00  0.00    +0.000 HD
ATOM      6  CA  ILE E   2      21.289  -5.163 -14.880  0.00  0.00    +0.000 C 
ATOM      7  C   ILE E   2      21.152  -5.658 -13.448  0.00  0.00    +0.000 C 
ATOM      8  O   ILE E   2      20.735  -4.904 -12.563  0.00  0.00    +0.000 OA
ATOM      9  CB  ILE E   2      22.477  -4.189 -15.005  0.00  0.00    +0.000 C 
ATOM     10  CG1 ILE E   2      22.500  -3.566 -16.403  0.00  0.00    +0.000 C 
ATOM     11  CG2 ILE E   2      23.783  -4.901 -14.707  0.00  0.00    +0.000 C 
ATOM     12  CD1 ILE E   2      23.805  -2.897 -16.757  0.00  0.00    +0.000 C 
ATOM     13  N   LEU E   3      21.507  -6.922 -13.221  0.00  0.00    +0.000 N 
ATOM     14  H   LEU E   3      21.777  -7.494 -14.015  0.00  0.00    +0.000 HD
ATOM     15  CA  LEU E   3      21.523  -7.516 -11.891  0.00  0.00    +0.000 C 
ATOM     16  C   LEU E   3      22.889  -8.136 -11.641  0.00  0.00    +0.000 C 
ATOM     17  O   LEU E   3      23.367  -8.941 -12.447  0.00  0.00    +0.000 OA
ATOM     18  CB  LEU E   3      20.427  -8.575 -11.729  0.00  0.00    +0.000 C 
ATOM     19  CG  LEU E   3      20.516  -9.431 -10.462  0.00  0.00    +0.000 C 
ATOM     20  CD1 LEU E   3      20.519  -8.565  -9.213  0.00  0.00    +0.000 C 
ATOM     21  CD2 LEU E   3      19.384 -10.444 -10.407  0.00  0.00    +0.000 C 
ATOM     22  N   VAL E   4      23.506  -7.765 -10.524  0.00  0.00    +0.000 N 
ATOM     23  H   VAL E   4      23.042  -7.126  -9.897  0.00  0.00    +0.000 HD
ATOM     24  CA  VAL E   4      24.830  -8.244 -10.149  0.00  0.00    +0.000 C 
ATOM     25  C   VAL E   4      24.691  -9.120  -8.911  0.00  0.00    +0.000 C 
ATOM     26  O   VAL E   4      24.214  -8.661  -7.865  0.00  0.00    +0.000 OA
ATOM     27  CB  VAL E   4      25.801  -7.080  -9.895  0.00  0.00    +0.000 C 
ATOM     28  CG1 VAL E   4      27.039  -7.570  -9.154  0.00  0.00    +0.000 C 
ATOM     29  CG2 VAL E   4      26.190  -6.423 -11.211  0.00  0.00    +0.000 C 
ATOM     30  N   ILE E   5      25.097 -10.384  -9.036  0.00  0.00    +0.000 N 
ATOM     31  H   ILE E   5      25.475 -10.699  -9.922  0.00  0.00    +0.000 HD
ATOM     32  CA  ILE E   5      25.207 -11.281  -7.890  0.00  0.00    +0.000 C 
ATOM     33  C   ILE E   5      26.559 -11.979  -7.933  0.00  0.00    +0.000 C 
ATOM     34  O   ILE E   5      27.440 -11.609  -8.718  0.00  0.00    +0.000 OA
ATOM     35  CB  ILE E   5      24.063 -12.314  -7.843  0.00  0.00    +0.000 C 
ATOM     36  CG1 ILE E   5      23.808 -12.923  -9.225  0.00  0.00    +0.000 C 
ATOM     37  CG2 ILE E   5      22.800 -11.696  -7.262  0.00  0.00    +0.000 C 
ATOM     38  CD1 ILE E   5      22.797 -14.056  -9.195  0.00  0.00    +0.000 C 
ATOM     39  N   ASP E   6      26.726 -12.996  -7.093  0.00  0.00    +0.000 N 
ATOM     40  H   ASP E   6      26.021 -13.190  -6.402  0.00  0.00    +0.000 HD
ATOM     41  CA  ASP E   6      27.986 -13.721  -7.030  0.00  0.00    +0.000 C 
ATOM     42  C   ASP E   6      28.148 -14.627  -8.243  0.00  0.00    +0.000 C 
ATOM     43  O   ASP E   6      27.227 -15.362  -8.614  0.00  0.00    +0.000 OA
ATOM     44  CB  ASP E   6      28.060 -14.546  -5.746  0.00  0.00    +0.000 C 
ATOM     45  CG  ASP E   6      28.486 -13.725  -4.549  0.00  0.00    +0.000 C 
ATOM     46  OD1 ASP E   6      29.343 -12.834  -4.718  0.00  0.00    +0.000 OA
ATOM     47  OD2 ASP E   6      27.964 -13.972  -3.441  0.00  0.00    +0.000 OA
ATOM     48  N   LEU E   7      29.320 -14.557  -8.868  0.00  0.00    +0.000 N 
ATOM     49  H   LEU E   7      30.039 -13.980  -8.455  0.00  0.00    +0.000 HD
ATOM     50  CA  LEU E   7      29.718 -15.557  -9.846  0.00  0.00    +0.000 C 
ATOM     51  C   LEU E   7      29.973 -16.889  -9.147  0.00  0.00    +0.000 C 
ATOM     52  O   LEU E   7      30.447 -16.937  -8.010  0.00  0.00    +0.000 OA
ATOM     53  CB  LEU E   7      30.971 -15.092 -10.591  0.00  0.00    +0.000 C 
ATOM     54  CG  LEU E   7      31.554 -15.938 -11.723  0.00  0.00    +0.000 C 
ATOM     55  CD1 LEU E   7      30.793 -15.715 -13.020  0.00  0.00    +0.000 C 
ATOM     56  CD2 LEU E   7      33.029 -15.614 -11.897  0.00  0.00    +0.000 C 
ATOM     57  N   LEU E   8      29.642 -17.981  -9.832  0.00  0.00    +0.000 N 
ATOM     58  H   LEU E   8      29.316 -17.906 -10.783  0.00  0.00    +0.000 HD
ATOM     59  CA  LEU E   8      29.780 -19.310  -9.253  0.00  0.00    +0.000 C 
ATOM     60  C   LEU E   8      30.374 -20.254 -10.290  0.00  0.00    +0.000 C 
ATOM     61  O   LEU E   8      30.574 -19.892 -11.453  0.00  0.00    +0.000 OA
ATOM     62  CB  LEU E   8      28.434 -19.824  -8.730  0.00  0.00    +0.000 C 
ATOM     63  CG  LEU E   8      27.995 -19.249  -7.381  0.00  0.00    +0.000 C 
ATOM     64  CD1 LEU E   8      26.561 -19.625  -7.081  0.00  0.00    +0.000 C 
ATOM     65  CD2 LEU E   8      28.920 -19.731  -6.271  0.00  0.00    +0.000 C 
ATOM     66  N   GLY E   9      30.658 -21.480  -9.855  0.00  0.00    +0.000 N 
ATOM     67  H   GLY E   9      30.309 -21.776  -8.951  0.00  0.00    +0.000 HD
ATOM     68  CA  GLY E   9      31.256 -22.476 -10.710  0.00  0.00    +0.000 C 
ATOM     69  C   GLY E   9      30.252 -23.122 -11.642  0.00  0.00    +0.000 C 
ATOM     70  O   GLY E   9      29.116 -22.659 -11.789  0.00  0.00    +0.000 OA
ATOM     71  N   PRO E  10      30.656 -24.216 -12.285  0.00  0.00    +0.000 N 
ATOM     72  CA  PRO E  10      29.785 -24.865 -13.273  0.00  0.00    +0.000 C 
ATOM     73  C   PRO E  10      28.529 -25.435 -12.632  0.00  0.00    +0.000 C 
ATOM     74  O   PRO E  10      28.419 -25.589 -11.415  0.00  0.00    +0.000 OA
ATOM     75  CB  PRO E  10      30.664 -25.980 -13.852  0.00  0.00    +0.000 C 
ATOM     76  CG  PRO E  10      32.065 -25.595 -13.500  0.00  0.00    +0.000 C 
ATOM     77  CD  PRO E  10      31.969 -24.873 -12.194  0.00  0.00    +0.000 C 
ATOM     78  N   SER E  11      27.567 -25.754 -13.492  0.00  0.00    +0.000 N 
ATOM     79  H   SER E  11      27.742 -25.691 -14.480  0.00  0.00    +0.000 HD
ATOM     80  CA  SER E  11      26.328 -26.365 -13.044  0.00  0.00    +0.000 C 
ATOM     81  C   SER E  11      26.510 -27.868 -12.858  0.00  0.00    +0.000 C 
ATOM     82  O   SER E  11      27.478 -28.469 -13.333  0.00  0.00    +0.000 OA
ATOM     83  CB  SER E  11      25.199 -26.103 -14.042  0.00  0.00    +0.000 C 
ATOM     84  OG  SER E  11      25.421 -26.801 -15.257  0.00  0.00    +0.000 OA
ATOM     85  HG  SER E  11      25.823 -26.204 -15.900  0.00  0.00    +0.000 HD
ATOM     86  N   LEU E  12      25.552 -28.475 -12.153  0.00  0.00    +0.000 N 
ATOM     87  H   LEU E  12      24.807 -27.923 -11.739  0.00  0.00    +0.000 HD
ATOM     88  CA  LEU E  12      25.548 -29.927 -12.032  0.00  0.00    +0.000 C 
ATOM     89  C   LEU E  12      25.398 -30.592 -13.392  0.00  0.00    +0.000 C 
ATOM     90  O   LEU E  12      25.890 -31.707 -13.594  0.00  0.00    +0.000 OA
ATOM     91  CB  LEU E  12      24.434 -30.376 -11.089  0.00  0.00    +0.000 C 
ATOM     92  CG  LEU E  12      24.573 -29.938  -9.630  0.00  0.00    +0.000 C 
ATOM     93  CD1 LEU E  12      23.421 -30.480  -8.798  0.00  0.00    +0.000 C 
ATOM     94  CD2 LEU E  12      25.907 -30.394  -9.062  0.00  0.00    +0.000 C 
ATOM     95  N   NME E  13      24.733 -29.922 -14.337  0.00  0.00    +0.000 N 
ATOM     96  H   NME E  13      24.343 -29.012 -14.120  0.00  0.00    +0.000 HD
ATOM     97  C   NME E  13      24.654 -30.437 -15.700  0.00  0.00    +0.000 C 
TER 
REMARK  Name = /home/xianyang/aimnet2_score_pipelines/work/L1234-fixed-receptor-eint-20260921/L3/A0A1D8PKB4/prepared.pdb
REMARK                            x       y       z     vdW  Elec       q    Type
REMARK                         _______ _______ _______ _____ _____    ______ ____
ATOM      1  CH3 ACE F   1      12.226 -24.396 -12.384  0.00  0.00    +0.000 C 
ATOM      2  C   ACE F   1      13.372 -25.340 -12.046  0.00  0.00    +0.000 C 
ATOM      3  O   ACE F   1      14.537 -25.069 -12.348  0.00  0.00    +0.000 OA
ATOM      4  N   ILE F   2      13.052 -26.471 -11.420  0.00  0.00    +0.000 N 
ATOM      5  H   ILE F   2      12.082 -26.680 -11.247  0.00  0.00    +0.000 HD
ATOM      6  CA  ILE F   2      14.074 -27.409 -10.965  0.00  0.00    +0.000 C 
ATOM      7  C   ILE F   2      14.752 -28.046 -12.172  0.00  0.00    +0.000 C 
ATOM      8  O   ILE F   2      14.104 -28.712 -12.988  0.00  0.00    +0.000 OA
ATOM      9  CB  ILE F   2      13.463 -28.474 -10.046  0.00  0.00    +0.000 C 
ATOM     10  CG1 ILE F   2      13.009 -27.847  -8.725  0.00  0.00    +0.000 C 
ATOM     11  CG2 ILE F   2      14.457 -29.596  -9.794  0.00  0.00    +0.000 C 
ATOM     12  CD1 ILE F   2      14.144 -27.337  -7.870  0.00  0.00    +0.000 C 
ATOM     13  N   LYS F   3      16.067 -27.840 -12.290  0.00  0.00    +0.000 N 
ATOM     14  H   LYS F   3      16.518 -27.197 -11.652  0.00  0.00    +0.000 HD
ATOM     15  CA  LYS F   3      16.883 -28.457 -13.331  0.00  0.00    +0.000 C 
ATOM     16  C   LYS F   3      18.356 -28.400 -12.931  0.00  0.00    +0.000 C 
ATOM     17  O   LYS F   3      18.773 -27.467 -12.234  0.00  0.00    +0.000 OA
ATOM     18  CB  LYS F   3      16.660 -27.772 -14.685  0.00  0.00    +0.000 C 
ATOM     19  CG  LYS F   3      17.541 -26.562 -14.945  0.00  0.00    +0.000 C 
ATOM     20  CD  LYS F   3      17.278 -25.958 -16.317  0.00  0.00    +0.000 C 
ATOM     21  CE  LYS F   3      15.960 -25.204 -16.350  0.00  0.00    +0.000 C 
ATOM     22  NZ  LYS F   3      15.772 -24.489 -17.642  0.00  0.00    +0.000 N 
ATOM     23  HZ1 LYS F   3      14.885 -24.002 -17.649  0.00  0.00    +0.000 HD
ATOM     24  HZ2 LYS F   3      16.514 -23.806 -17.771  0.00  0.00    +0.000 HD
ATOM     25  HZ3 LYS F   3      15.801 -25.135 -18.416  0.00  0.00    +0.000 HD
ATOM     26  N   PRO F   4      19.175 -29.373 -13.340  0.00  0.00    +0.000 N 
ATOM     27  CA  PRO F   4      20.596 -29.360 -12.960  0.00  0.00    +0.000 C 
ATOM     28  C   PRO F   4      21.397 -28.234 -13.589  0.00  0.00    +0.000 C 
ATOM     29  O   PRO F   4      22.570 -28.066 -13.236  0.00  0.00    +0.000 OA
ATOM     30  CB  PRO F   4      21.101 -30.727 -13.448  0.00  0.00    +0.000 C 
ATOM     31  CG  PRO F   4      19.873 -31.559 -13.629  0.00  0.00    +0.000 C 
ATOM     32  CD  PRO F   4      18.811 -30.599 -14.062  0.00  0.00    +0.000 C 
ATOM     33  N   ASP F   5      20.819 -27.471 -14.515  0.00  0.00    +0.000 N 
ATOM     34  H   ASP F   5      20.086 -27.882 -15.086  0.00  0.00    +0.000 HD
ATOM     35  CA  ASP F   5      21.496 -26.302 -15.057  0.00  0.00    +0.000 C 
ATOM     36  C   ASP F   5      21.446 -25.109 -14.112  0.00  0.00    +0.000 C 
ATOM     37  O   ASP F   5      22.216 -24.160 -14.299  0.00  0.00    +0.000 OA
ATOM     38  CB  ASP F   5      20.880 -25.921 -16.403  0.00  0.00    +0.000 C 
ATOM     39  CG  ASP F   5      20.705 -27.114 -17.322  0.00  0.00    +0.000 C 
ATOM     40  OD1 ASP F   5      20.242 -28.171 -16.844  0.00  0.00    +0.000 OA
ATOM     41  OD2 ASP F   5      21.021 -26.992 -18.525  0.00  0.00    +0.000 OA
ATOM     42  N   ASN F   6      20.573 -25.139 -13.105  0.00  0.00    +0.000 N 
ATOM     43  H   ASN F   6      19.964 -25.942 -13.020  0.00  0.00    +0.000 HD
ATOM     44  CA  ASN F   6      20.413 -24.037 -12.167  0.00  0.00    +0.000 C 
ATOM     45  C   ASN F   6      21.057 -24.297 -10.812  0.00  0.00    +0.000 C 
ATOM     46  O   ASN F   6      21.005 -23.422  -9.942  0.00  0.00    +0.000 OA
ATOM     47  CB  ASN F   6      18.925 -23.719 -11.978  0.00  0.00    +0.000 C 
ATOM     48  CG  ASN F   6      18.311 -23.057 -13.196  0.00  0.00    +0.000 C 
ATOM     49  OD1 ASN F   6      18.951 -22.941 -14.241  0.00  0.00    +0.000 OA
ATOM     50  ND2 ASN F   6      17.064 -22.622 -13.068  0.00  0.00    +0.000 N 
ATOM     51 HD21 ASN F   6      16.812 -21.898 -13.723  0.00  0.00    +0.000 HD
ATOM     52 HD22 ASN F   6      16.635 -22.626 -12.157  0.00  0.00    +0.000 HD
ATOM     53  N   PHE F   7      21.650 -25.469 -10.602  0.00  0.00    +0.000 N 
ATOM     54  H   PHE F   7      21.709 -26.121 -11.370  0.00  0.00    +0.000 HD
ATOM     55  CA  PHE F   7      22.389 -25.771  -9.382  0.00  0.00    +0.000 C 
ATOM     56  C   PHE F   7      23.880 -25.707  -9.690  0.00  0.00    +0.000 C 
ATOM     57  O   PHE F   7      24.389 -26.517 -10.471  0.00  0.00    +0.000 OA
ATOM     58  CB  PHE F   7      22.018 -27.149  -8.834  0.00  0.00    +0.000 C 
ATOM     59  CG  PHE F   7      20.610 -27.245  -8.310  0.00  0.00    +0.000 A 
ATOM     60  CD1 PHE F   7      19.543 -27.379  -9.181  0.00  0.00    +0.000 A 
ATOM     61  CD2 PHE F   7      20.358 -27.227  -6.946  0.00  0.00    +0.000 A 
ATOM     62  CE1 PHE F   7      18.249 -27.481  -8.707  0.00  0.00    +0.000 A 
ATOM     63  CE2 PHE F   7      19.063 -27.325  -6.464  0.00  0.00    +0.000 A 
ATOM     64  CZ  PHE F   7      18.008 -27.454  -7.348  0.00  0.00    +0.000 A 
ATOM     65  N   LEU F   8      24.574 -24.751  -9.083  0.00  0.00    +0.000 N 
ATOM     66  H   LEU F   8      24.123 -24.221  -8.343  0.00  0.00    +0.000 HD
ATOM     67  CA  LEU F   8      25.988 -24.537  -9.341  0.00  0.00    +0.000 C 
ATOM     68  C   LEU F   8      26.815 -24.867  -8.105  0.00  0.00    +0.000 C 
ATOM     69  O   LEU F   8      26.349 -24.732  -6.969  0.00  0.00    +0.000 OA
ATOM     70  CB  LEU F   8      26.267 -23.088  -9.757  0.00  0.00    +0.000 C 
ATOM     71  CG  LEU F   8      25.310 -22.368 -10.709  0.00  0.00    +0.000 C 
ATOM     72  CD1 LEU F   8      25.873 -20.999 -11.082  0.00  0.00    +0.000 C 
ATOM     73  CD2 LEU F   8      25.035 -23.190 -11.954  0.00  0.00    +0.000 C 
ATOM     74  N   ILE F   9      28.052 -25.301  -8.342  0.00  0.00    +0.000 N 
ATOM     75  H   ILE F   9      28.352 -25.374  -9.309  0.00  0.00    +0.000 HD
ATOM     76  CA  ILE F   9      29.043 -25.398  -7.278  0.00  0.00    +0.000 C 
ATOM     77  C   ILE F   9      29.738 -24.051  -7.164  0.00  0.00    +0.000 C 
ATOM     78  O   ILE F   9      29.570 -23.183  -8.030  0.00  0.00    +0.000 OA
ATOM     79  CB  ILE F   9      30.056 -26.526  -7.540  0.00  0.00    +0.000 C 
ATOM     80  CG1 ILE F   9      30.444 -26.549  -9.020  0.00  0.00    +0.000 C 
ATOM     81  CG2 ILE F   9      29.497 -27.865  -7.059  0.00  0.00    +0.000 C 
ATOM     82  CD1 ILE F   9      31.746 -27.265  -9.311  0.00  0.00    +0.000 C 
ATOM     83  N   NME F  10      30.514 -23.864  -6.102  0.00  0.00    +0.000 N 
ATOM     84  H   NME F  10      30.587 -24.588  -5.404  0.00  0.00    +0.000 HD
ATOM     85  C   NME F  10      31.306 -22.665  -5.978  0.00  0.00    +0.000 C 
TER 
REMARK  Name = /home/xianyang/aimnet2_score_pipelines/work/L1234-fixed-receptor-eint-20260921/L3/A0A1D8PKB4/prepared.pdb
REMARK                            x       y       z     vdW  Elec       q    Type
REMARK                         _______ _______ _______ _____ _____    ______ ____
ATOM      1  CH3 ACE G   1      24.183 -23.383  -4.795  0.00  0.00    +0.000 C 
ATOM      2  C   ACE G   1      22.982 -23.402  -5.734  0.00  0.00    +0.000 C 
ATOM      3  O   ACE G   1      22.939 -24.157  -6.709  0.00  0.00    +0.000 OA
ATOM      4  N   LEU G   2      22.001 -22.556  -5.425  0.00  0.00    +0.000 N 
ATOM      5  H   LEU G   2      22.133 -21.915  -4.653  0.00  0.00    +0.000 HD
ATOM      6  CA  LEU G   2      20.807 -22.396  -6.244  0.00  0.00    +0.000 C 
ATOM      7  C   LEU G   2      20.733 -20.969  -6.769  0.00  0.00    +0.000 C 
ATOM      8  O   LEU G   2      20.991 -20.012  -6.033  0.00  0.00    +0.000 OA
ATOM      9  CB  LEU G   2      19.539 -22.725  -5.451  0.00  0.00    +0.000 C 
ATOM     10  CG  LEU G   2      18.248 -22.757  -6.275  0.00  0.00    +0.000 C 
ATOM     11  CD1 LEU G   2      18.304 -23.864  -7.338  0.00  0.00    +0.000 C 
ATOM     12  CD2 LEU G   2      17.028 -22.921  -5.373  0.00  0.00    +0.000 C 
ATOM     13  N   ILE G   3      20.377 -20.832  -8.045  0.00  0.00    +0.000 N 
ATOM     14  H   ILE G   3      20.156 -21.659  -8.589  0.00  0.00    +0.000 HD
ATOM     15  CA  ILE G   3      20.308 -19.547  -8.727  0.00  0.00    +0.000 C 
ATOM     16  C   ILE G   3      19.081 -19.543  -9.633  0.00  0.00    +0.000 C 
ATOM     17  O   ILE G   3      18.318 -20.510  -9.682  0.00  0.00    +0.000 OA
ATOM     18  CB  ILE G   3      21.582 -19.254  -9.544  0.00  0.00    +0.000 C 
ATOM     19  CG1 ILE G   3      21.877 -20.424 -10.480  0.00  0.00    +0.000 C 
ATOM     20  CG2 ILE G   3      22.766 -18.995  -8.625  0.00  0.00    +0.000 C 
ATOM     21  CD1 ILE G   3      22.221 -20.013 -11.876  0.00  0.00    +0.000 C 
ATOM     22  N   ASP G   4      18.900 -18.434 -10.357  0.00  0.00    +0.000 N 
ATOM     23  H   ASP G   4      19.468 -17.630 -10.150  0.00  0.00    +0.000 HD
ATOM     24  CA  ASP G   4      17.834 -18.273 -11.344  0.00  0.00    +0.000 C 
ATOM     25  C   ASP G   4      16.454 -18.441 -10.719  0.00  0.00    +0.000 C 
ATOM     26  O   ASP G   4      15.905 -19.548 -10.694  0.00  0.00    +0.000 OA
ATOM     27  CB  ASP G   4      18.020 -19.263 -12.500  0.00  0.00    +0.000 C 
ATOM     28  CG  ASP G   4      17.211 -18.889 -13.735  0.00  0.00    +0.000 C 
ATOM     29  OD1 ASP G   4      16.145 -18.253 -13.595  0.00  0.00    +0.000 OA
ATOM     30  OD2 ASP G   4      17.646 -19.236 -14.853  0.00  0.00    +0.000 OA
ATOM     31  N   PHE G   5      15.874 -17.345 -10.231  0.00  0.00    +0.000 N 
ATOM     32  H   PHE G   5      16.274 -16.452 -10.491  0.00  0.00    +0.000 HD
ATOM     33  CA  PHE G   5      14.548 -17.359  -9.628  0.00  0.00    +0.000 C 
ATOM     34  C   PHE G   5      13.521 -16.631 -10.491  0.00  0.00    +0.000 C 
ATOM     35  O   PHE G   5      12.535 -16.098  -9.976  0.00  0.00    +0.000 OA
ATOM     36  CB  PHE G   5      14.592 -16.756  -8.226  0.00  0.00    +0.000 C 
ATOM     37  CG  PHE G   5      15.376 -17.575  -7.243  0.00  0.00    +0.000 A 
ATOM     38  CD1 PHE G   5      16.755 -17.462  -7.171  0.00  0.00    +0.000 A 
ATOM     39  CD2 PHE G   5      14.735 -18.460  -6.393  0.00  0.00    +0.000 A 
ATOM     40  CE1 PHE G   5      17.480 -18.216  -6.270  0.00  0.00    +0.000 A 
ATOM     41  CE2 PHE G   5      15.454 -19.216  -5.489  0.00  0.00    +0.000 A 
ATOM     42  CZ  PHE G   5      16.830 -19.094  -5.428  0.00  0.00    +0.000 A 
ATOM     43  N   NME G   6      13.739 -16.604 -11.806  0.00  0.00    +0.000 N 
ATOM     44  H   NME G   6      14.617 -16.976 -12.167  0.00  0.00    +0.000 HD
ATOM     45  C   NME G   6      12.775 -16.014 -12.719  0.00  0.00    +0.000 C 
TER 
