REMARK  Name = /data/user_data/xianyang/t3-aimnet-affinity-balanced/L2/Q8NER1/pocket.pdb
REMARK                            x       y       z     vdW  Elec       q    Type
REMARK                         _______ _______ _______ _____ _____    ______ ____
ATOM      1  N   PHE A   1     132.506 144.320 168.721  0.00  0.00    +0.000 N 
ATOM      2  CA  PHE A   1     131.852 145.613 168.525  0.00  0.00    +0.000 C 
ATOM      3  C   PHE A   1     130.349 145.459 168.370  0.00  0.00    +0.000 C 
ATOM      4  O   PHE A   1     129.571 146.212 168.969  0.00  0.00    +0.000 OA
ATOM      5  CB  PHE A   1     132.408 146.321 167.299  0.00  0.00    +0.000 C 
ATOM      6  CG  PHE A   1     133.712 146.990 167.527  0.00  0.00    +0.000 A 
ATOM      7  CD2 PHE A   1     134.120 147.322 168.790  0.00  0.00    +0.000 A 
ATOM      8  CD1 PHE A   1     134.518 147.318 166.468  0.00  0.00    +0.000 A 
ATOM      9  CE2 PHE A   1     135.320 147.940 168.987  0.00  0.00    +0.000 A 
ATOM     10  CE1 PHE A   1     135.718 147.941 166.663  0.00  0.00    +0.000 A 
ATOM     11  CZ  PHE A   1     136.119 148.253 167.925  0.00  0.00    +0.000 A 
ATOM     12  H   PHE A   1     133.511 144.459 168.821  0.00  0.00    +0.000 HD
ATOM     13  H   PHE A   1     132.324 143.721 167.915  0.00  0.00    +0.000 HD
ATOM     14  H   PHE A   1     132.138 143.877 169.563  0.00  0.00    +0.000 HD
TER 
REMARK  Name = /data/user_data/xianyang/t3-aimnet-affinity-balanced/L2/Q8NER1/pocket.pdb
REMARK                            x       y       z     vdW  Elec       q    Type
REMARK                         _______ _______ _______ _____ _____    ______ ____
ATOM      1  N   PHE B   1     127.630 147.113 171.032  0.00  0.00    +0.000 N 
ATOM      2  CA  PHE B   1     126.694 148.159 170.650  0.00  0.00    +0.000 C 
ATOM      3  C   PHE B   1     125.266 147.644 170.587  0.00  0.00    +0.000 C 
ATOM      4  O   PHE B   1     124.331 148.410 170.828  0.00  0.00    +0.000 OA
ATOM      5  CB  PHE B   1     127.108 148.772 169.325  0.00  0.00    +0.000 C 
ATOM      6  CG  PHE B   1     128.207 149.767 169.453  0.00  0.00    +0.000 A 
ATOM      7  CD2 PHE B   1     127.928 151.101 169.618  0.00  0.00    +0.000 A 
ATOM      8  CD1 PHE B   1     129.521 149.368 169.420  0.00  0.00    +0.000 A 
ATOM      9  CE2 PHE B   1     128.936 152.015 169.740  0.00  0.00    +0.000 A 
ATOM     10  CE1 PHE B   1     130.531 150.281 169.539  0.00  0.00    +0.000 A 
ATOM     11  CZ  PHE B   1     130.238 151.605 169.700  0.00  0.00    +0.000 A 
ATOM     12  H   PHE B   1     128.575 147.497 171.063  0.00  0.00    +0.000 HD
ATOM     13  H   PHE B   1     127.592 146.357 170.348  0.00  0.00    +0.000 HD
ATOM     14  H   PHE B   1     127.379 146.752 171.952  0.00  0.00    +0.000 HD
TER 
REMARK  Name = /data/user_data/xianyang/t3-aimnet-affinity-balanced/L2/Q8NER1/pocket.pdb
REMARK                            x       y       z     vdW  Elec       q    Type
REMARK                         _______ _______ _______ _____ _____    ______ ____
ATOM      1  N   ALA C   1     128.513 156.099 166.158  0.00  0.00    +0.000 N 
ATOM      2  CA  ALA C   1     129.764 155.507 166.606  0.00  0.00    +0.000 C 
ATOM      3  C   ALA C   1     129.933 154.107 166.047  0.00  0.00    +0.000 C 
ATOM      4  O   ALA C   1     131.014 153.747 165.576  0.00  0.00    +0.000 OA
ATOM      5  CB  ALA C   1     129.819 155.484 168.128  0.00  0.00    +0.000 C 
ATOM      6  H   ALA C   1     128.488 156.109 165.138  0.00  0.00    +0.000 HD
ATOM      7  H   ALA C   1     128.444 157.054 166.509  0.00  0.00    +0.000 HD
ATOM      8  H   ALA C   1     127.730 155.549 166.512  0.00  0.00    +0.000 HD
TER 
REMARK  Name = /data/user_data/xianyang/t3-aimnet-affinity-balanced/L2/Q8NER1/pocket.pdb
REMARK                            x       y       z     vdW  Elec       q    Type
REMARK                         _______ _______ _______ _____ _____    ______ ____
ATOM      1  N   LEU D   1     132.885 153.063 163.457  0.00  0.00    +0.000 N 
ATOM      2  CA  LEU D   1     133.840 152.053 163.890  0.00  0.00    +0.000 C 
ATOM      3  C   LEU D   1     133.852 150.853 162.955  0.00  0.00    +0.000 C 
ATOM      4  O   LEU D   1     134.916 150.413 162.515  0.00  0.00    +0.000 OA
ATOM      5  CB  LEU D   1     133.532 151.618 165.318  0.00  0.00    +0.000 C 
ATOM      6  CG  LEU D   1     134.316 152.334 166.413  0.00  0.00    +0.000 C 
ATOM      7  CD1 LEU D   1     135.776 151.987 166.295  0.00  0.00    +0.000 C 
ATOM      8  CD2 LEU D   1     134.141 153.824 166.331  0.00  0.00    +0.000 C 
ATOM      9  H   LEU D   1     133.100 153.347 162.501  0.00  0.00    +0.000 HD
ATOM     10  H   LEU D   1     132.944 153.873 164.074  0.00  0.00    +0.000 HD
ATOM     11  H   LEU D   1     131.942 152.677 163.493  0.00  0.00    +0.000 HD
TER 
REMARK  Name = /data/user_data/xianyang/t3-aimnet-affinity-balanced/L2/Q8NER1/pocket.pdb
REMARK                            x       y       z     vdW  Elec       q    Type
REMARK                         _______ _______ _______ _____ _____    ______ ____
ATOM      1  N   LEU E   1     135.583 152.154 159.321  0.00  0.00    +0.000 N 
ATOM      2  CA  LEU E   1     136.931 151.756 159.699  0.00  0.00    +0.000 C 
ATOM      3  C   LEU E   1     137.183 150.279 159.425  0.00  0.00    +0.000 C 
ATOM      4  O   LEU E   1     138.068 149.929 158.642  0.00  0.00    +0.000 OA
ATOM      5  CB  LEU E   1     137.181 152.082 161.168  0.00  0.00    +0.000 C 
ATOM      6  CG  LEU E   1     138.530 151.625 161.706  0.00  0.00    +0.000 C 
ATOM      7  CD1 LEU E   1     139.596 152.600 161.295  0.00  0.00    +0.000 C 
ATOM      8  CD2 LEU E   1     138.475 151.510 163.205  0.00  0.00    +0.000 C 
ATOM      9  H   LEU E   1     135.426 151.932 158.338  0.00  0.00    +0.000 HD
ATOM     10  H   LEU E   1     135.472 153.158 159.465  0.00  0.00    +0.000 HD
ATOM     11  H   LEU E   1     134.906 151.651 159.895  0.00  0.00    +0.000 HD
TER 
REMARK  Name = /data/user_data/xianyang/t3-aimnet-affinity-balanced/L2/Q8NER1/pocket.pdb
REMARK                            x       y       z     vdW  Elec       q    Type
REMARK                         _______ _______ _______ _____ _____    ______ ____
ATOM      1  N   ARG F   1     161.712 154.142 171.474  0.00  0.00    +0.000 N 
ATOM      2  CA  ARG F   1     161.103 153.508 172.636  0.00  0.00    +0.000 C 
ATOM      3  C   ARG F   1     160.612 152.104 172.323  0.00  0.00    +0.000 C 
ATOM      4  O   ARG F   1     160.701 151.214 173.174  0.00  0.00    +0.000 OA
ATOM      5  CB  ARG F   1     159.957 154.371 173.146  0.00  0.00    +0.000 C 
ATOM      6  CG  ARG F   1     159.413 153.947 174.483  0.00  0.00    +0.000 C 
ATOM      7  CD  ARG F   1     158.580 155.057 175.072  0.00  0.00    +0.000 C 
ATOM      8  NE  ARG F   1     157.427 154.543 175.793  0.00  0.00    +0.000 N 
ATOM      9  CZ  ARG F   1     156.175 154.707 175.389  0.00  0.00    +0.000 C 
ATOM     10  NH1 ARG F   1     155.926 155.369 174.269  0.00  0.00    +0.000 N 
ATOM     11  NH2 ARG F   1     155.175 154.209 176.100  0.00  0.00    +0.000 N 
ATOM     12  N   HIS F   2     160.092 151.886 171.119  0.00  0.00    +0.000 N 
ATOM     13  CA  HIS F   2     159.624 150.560 170.742  0.00  0.00    +0.000 C 
ATOM     14  C   HIS F   2     160.782 149.634 170.405  0.00  0.00    +0.000 C 
ATOM     15  O   HIS F   2     160.730 148.437 170.698  0.00  0.00    +0.000 OA
ATOM     16  CB  HIS F   2     158.671 150.669 169.557  0.00  0.00    +0.000 C 
ATOM     17  CG  HIS F   2     157.662 151.760 169.703  0.00  0.00    +0.000 A 
ATOM     18  ND1 HIS F   2     157.002 152.008 170.887  0.00  0.00    +0.000 N 
ATOM     19  CD2 HIS F   2     157.209 152.680 168.820  0.00  0.00    +0.000 A 
ATOM     20  CE1 HIS F   2     156.180 153.028 170.725  0.00  0.00    +0.000 A 
ATOM     21  NE2 HIS F   2     156.287 153.455 169.480  0.00  0.00    +0.000 NA
ATOM     22  H   ARG F   1     162.479 153.563 171.134  0.00  0.00    +0.000 HD
ATOM     23  H   ARG F   1     162.070 155.060 171.736  0.00  0.00    +0.000 HD
ATOM     24  H   ARG F   1     161.013 154.247 170.739  0.00  0.00    +0.000 HD
ATOM     25  H   ARG F   1     157.585 154.045 176.628  0.00  0.00    +0.000 HD
ATOM     26  H   ARG F   1     156.669 155.739 173.740  0.00  0.00    +0.000 HD
ATOM     27  H   ARG F   1     154.997 155.491 173.965  0.00  0.00    +0.000 HD
ATOM     28  H   ARG F   1     154.246 154.333 175.797  0.00  0.00    +0.000 HD
ATOM     29  H   ARG F   1     155.360 153.715 176.931  0.00  0.00    +0.000 HD
ATOM     30  H   HIS F   2     160.023 152.628 170.476  0.00  0.00    +0.000 HD
ATOM     31  H   HIS F   2     157.124 151.503 171.723  0.00  0.00    +0.000 HD
TER 
REMARK  Name = /data/user_data/xianyang/t3-aimnet-affinity-balanced/L2/Q8NER1/pocket.pdb
REMARK                            x       y       z     vdW  Elec       q    Type
REMARK                         _______ _______ _______ _____ _____    ______ ____
ATOM      1  N   VAL G   1     147.950 161.212 174.936  0.00  0.00    +0.000 N 
ATOM      2  CA  VAL G   1     148.599 160.827 173.691  0.00  0.00    +0.000 C 
ATOM      3  C   VAL G   1     149.149 159.411 173.801  0.00  0.00    +0.000 C 
ATOM      4  O   VAL G   1     149.332 158.722 172.790  0.00  0.00    +0.000 OA
ATOM      5  CB  VAL G   1     149.698 161.845 173.325  0.00  0.00    +0.000 C 
ATOM      6  CG1 VAL G   1     150.582 161.341 172.196  0.00  0.00    +0.000 C 
ATOM      7  CG2 VAL G   1     149.067 163.170 172.925  0.00  0.00    +0.000 C 
ATOM      8  N   ASP G   2     149.378 158.941 175.022  0.00  0.00    +0.000 N 
ATOM      9  CA  ASP G   2     150.107 157.695 175.210  0.00  0.00    +0.000 C 
ATOM     10  C   ASP G   2     149.287 156.588 175.850  0.00  0.00    +0.000 C 
ATOM     11  O   ASP G   2     149.307 155.458 175.360  0.00  0.00    +0.000 OA
ATOM     12  CB  ASP G   2     151.363 157.955 176.045  0.00  0.00    +0.000 C 
ATOM     13  CG  ASP G   2     152.381 158.773 175.297  0.00  0.00    +0.000 C 
ATOM     14  OD1 ASP G   2     152.403 158.673 174.053  0.00  0.00    +0.000 OA
ATOM     15  OD2 ASP G   2     153.152 159.513 175.943  0.00  0.00    +0.000 OA
ATOM     16  N   SER G   3     148.582 156.867 176.943  0.00  0.00    +0.000 N 
ATOM     17  CA  SER G   3     147.880 155.802 177.644  0.00  0.00    +0.000 C 
ATOM     18  C   SER G   3     146.800 155.183 176.770  0.00  0.00    +0.000 C 
ATOM     19  O   SER G   3     146.910 154.020 176.372  0.00  0.00    +0.000 OA
ATOM     20  CB  SER G   3     147.272 156.331 178.939  0.00  0.00    +0.000 C 
ATOM     21  OG  SER G   3     148.288 156.669 179.864  0.00  0.00    +0.000 OA
ATOM     22  N   TYR G   4     145.740 155.940 176.495  0.00  0.00    +0.000 N 
ATOM     23  CA  TYR G   4     144.700 155.552 175.551  0.00  0.00    +0.000 C 
ATOM     24  C   TYR G   4     143.940 154.306 175.981  0.00  0.00    +0.000 C 
ATOM     25  O   TYR G   4     142.985 153.912 175.311  0.00  0.00    +0.000 OA
ATOM     26  CB  TYR G   4     145.278 155.314 174.159  0.00  0.00    +0.000 C 
ATOM     27  CG  TYR G   4     145.518 156.548 173.344  0.00  0.00    +0.000 A 
ATOM     28  CD2 TYR G   4     144.733 157.673 173.508  0.00  0.00    +0.000 A 
ATOM     29  CD1 TYR G   4     146.514 156.579 172.386  0.00  0.00    +0.000 A 
ATOM     30  CE2 TYR G   4     144.948 158.803 172.755  0.00  0.00    +0.000 A 
ATOM     31  CE1 TYR G   4     146.736 157.699 171.628  0.00  0.00    +0.000 A 
ATOM     32  CZ  TYR G   4     145.952 158.811 171.816  0.00  0.00    +0.000 A 
ATOM     33  OH  TYR G   4     146.170 159.937 171.060  0.00  0.00    +0.000 OA
ATOM     34  N   SER G   5     144.341 153.673 177.070  0.00  0.00    +0.000 N 
ATOM     35  CA  SER G   5     143.583 152.554 177.611  0.00  0.00    +0.000 C 
ATOM     36  C   SER G   5     143.305 152.701 179.088  0.00  0.00    +0.000 C 
ATOM     37  O   SER G   5     142.212 152.366 179.540  0.00  0.00    +0.000 OA
ATOM     38  CB  SER G   5     144.314 151.241 177.381  0.00  0.00    +0.000 C 
ATOM     39  OG  SER G   5     145.404 151.129 178.269  0.00  0.00    +0.000 OA
ATOM     40  N   GLU G   6     144.271 153.190 179.858  0.00  0.00    +0.000 N 
ATOM     41  CA  GLU G   6     143.945 153.661 181.192  0.00  0.00    +0.000 C 
ATOM     42  C   GLU G   6     142.909 154.765 181.109  0.00  0.00    +0.000 C 
ATOM     43  O   GLU G   6     141.993 154.838 181.935  0.00  0.00    +0.000 OA
ATOM     44  CB  GLU G   6     145.206 154.148 181.895  0.00  0.00    +0.000 C 
ATOM     45  CG  GLU G   6     146.313 153.120 181.927  0.00  0.00    +0.000 C 
ATOM     46  CD  GLU G   6     145.953 151.907 182.755  0.00  0.00    +0.000 C 
ATOM     47  OE2 GLU G   6     145.214 152.062 183.747  0.00  0.00    +0.000 OA
ATOM     48  OE1 GLU G   6     146.405 150.796 182.412  0.00  0.00    +0.000 OA
ATOM     49  H   VAL G   1     147.586 162.161 174.850  0.00  0.00    +0.000 HD
ATOM     50  H   VAL G   1     148.627 161.175 175.698  0.00  0.00    +0.000 HD
ATOM     51  H   VAL G   1     147.182 160.570 175.132  0.00  0.00    +0.000 HD
ATOM     52  H   ASP G   2     149.052 159.439 175.806  0.00  0.00    +0.000 HD
ATOM     53  H   SER G   3     148.535 157.792 177.277  0.00  0.00    +0.000 HD
ATOM     54  H   SER G   3     148.813 155.880 180.071  0.00  0.00    +0.000 HD
ATOM     55  H   TYR G   4     145.654 156.807 176.953  0.00  0.00    +0.000 HD
ATOM     56  H   TYR G   4     146.853 159.946 170.419  0.00  0.00    +0.000 HD
ATOM     57  H   SER G   5     145.166 153.963 177.523  0.00  0.00    +0.000 HD
ATOM     58  H   SER G   5     146.021 151.862 178.118  0.00  0.00    +0.000 HD
ATOM     59  H   GLU G   6     145.197 153.232 179.528  0.00  0.00    +0.000 HD
TER 
REMARK  Name = /data/user_data/xianyang/t3-aimnet-affinity-balanced/L2/Q8NER1/pocket.pdb
REMARK                            x       y       z     vdW  Elec       q    Type
REMARK                         _______ _______ _______ _____ _____    ______ ____
ATOM      1  N   LEU H   1     140.613 155.000 178.766  0.00  0.00    +0.000 N 
ATOM      2  CA  LEU H   1     139.321 154.445 178.372  0.00  0.00    +0.000 C 
ATOM      3  C   LEU H   1     138.662 153.682 179.511  0.00  0.00    +0.000 C 
ATOM      4  O   LEU H   1     137.451 153.802 179.725  0.00  0.00    +0.000 OA
ATOM      5  CB  LEU H   1     139.491 153.551 177.154  0.00  0.00    +0.000 C 
ATOM      6  CG  LEU H   1     139.837 154.347 175.904  0.00  0.00    +0.000 C 
ATOM      7  CD1 LEU H   1     139.744 153.477 174.695  0.00  0.00    +0.000 C 
ATOM      8  CD2 LEU H   1     138.918 155.534 175.762  0.00  0.00    +0.000 C 
ATOM      9  H   LEU H   1     141.022 155.502 177.978  0.00  0.00    +0.000 HD
ATOM     10  H   LEU H   1     141.237 154.243 179.047  0.00  0.00    +0.000 HD
ATOM     11  H   LEU H   1     140.483 155.642 179.548  0.00  0.00    +0.000 HD
TER 
REMARK  Name = /data/user_data/xianyang/t3-aimnet-affinity-balanced/L2/Q8NER1/pocket.pdb
REMARK                            x       y       z     vdW  Elec       q    Type
REMARK                         _______ _______ _______ _____ _____    ______ ____
ATOM      1  N   LEU I   1     137.388 156.256 181.787  0.00  0.00    +0.000 N 
ATOM      2  CA  LEU I   1     136.185 156.879 181.257  0.00  0.00    +0.000 C 
ATOM      3  C   LEU I   1     134.970 155.992 181.468  0.00  0.00    +0.000 C 
ATOM      4  O   LEU I   1     133.883 156.479 181.799  0.00  0.00    +0.000 OA
ATOM      5  CB  LEU I   1     136.385 157.183 179.780  0.00  0.00    +0.000 C 
ATOM      6  CG  LEU I   1     135.318 158.026 179.112  0.00  0.00    +0.000 C 
ATOM      7  CD2 LEU I   1     135.548 159.472 179.456  0.00  0.00    +0.000 C 
ATOM      8  CD1 LEU I   1     135.389 157.826 177.621  0.00  0.00    +0.000 C 
ATOM      9  H   LEU I   1     138.186 156.872 181.632  0.00  0.00    +0.000 HD
ATOM     10  H   LEU I   1     137.547 155.367 181.313  0.00  0.00    +0.000 HD
ATOM     11  H   LEU I   1     137.274 156.092 182.787  0.00  0.00    +0.000 HD
TER 
REMARK  Name = /data/user_data/xianyang/t3-aimnet-affinity-balanced/L2/Q8NER1/pocket.pdb
REMARK                            x       y       z     vdW  Elec       q    Type
REMARK                         _______ _______ _______ _____ _____    ______ ____
ATOM      1  N   ALA J   1     128.644 150.286 176.301  0.00  0.00    +0.000 N 
ATOM      2  CA  ALA J   1     129.311 150.157 175.013  0.00  0.00    +0.000 C 
ATOM      3  C   ALA J   1     130.818 150.165 175.187  0.00  0.00    +0.000 C 
ATOM      4  O   ALA J   1     131.503 149.210 174.800  0.00  0.00    +0.000 OA
ATOM      5  CB  ALA J   1     128.874 151.280 174.082  0.00  0.00    +0.000 C 
ATOM      6  N   LEU J   2     131.339 151.199 175.851  0.00  0.00    +0.000 N 
ATOM      7  CA  LEU J   2     132.764 151.251 176.150  0.00  0.00    +0.000 C 
ATOM      8  C   LEU J   2     133.228 149.963 176.799  0.00  0.00    +0.000 C 
ATOM      9  O   LEU J   2     134.268 149.409 176.426  0.00  0.00    +0.000 OA
ATOM     10  CB  LEU J   2     133.078 152.435 177.052  0.00  0.00    +0.000 C 
ATOM     11  CG  LEU J   2     133.231 153.768 176.351  0.00  0.00    +0.000 C 
ATOM     12  CD2 LEU J   2     133.309 154.864 177.369  0.00  0.00    +0.000 C 
ATOM     13  CD1 LEU J   2     134.492 153.726 175.539  0.00  0.00    +0.000 C 
ATOM     14  H   ALA J   1     127.633 150.279 176.163  0.00  0.00    +0.000 HD
ATOM     15  H   ALA J   1     128.921 151.164 176.741  0.00  0.00    +0.000 HD
ATOM     16  H   ALA J   1     128.911 149.506 176.902  0.00  0.00    +0.000 HD
ATOM     17  H   LEU J   2     130.754 151.935 176.142  0.00  0.00    +0.000 HD
TER 
REMARK  Name = /data/user_data/xianyang/t3-aimnet-affinity-balanced/L2/Q8NER1/pocket.pdb
REMARK                            x       y       z     vdW  Elec       q    Type
REMARK                         _______ _______ _______ _____ _____    ______ ____
ATOM      1  N   THR K   1     133.819 147.401 174.236  0.00  0.00    +0.000 N 
ATOM      2  CA  THR K   1     134.898 147.761 173.337  0.00  0.00    +0.000 C 
ATOM      3  C   THR K   1     136.211 147.951 174.065  0.00  0.00    +0.000 C 
ATOM      4  O   THR K   1     137.195 148.339 173.432  0.00  0.00    +0.000 OA
ATOM      5  CB  THR K   1     134.552 149.021 172.560  0.00  0.00    +0.000 C 
ATOM      6  OG1 THR K   1     135.556 149.248 171.574  0.00  0.00    +0.000 OA
ATOM      7  CG2 THR K   1     134.533 150.191 173.459  0.00  0.00    +0.000 C 
ATOM      8  N   ASN K   2     136.255 147.701 175.370  0.00  0.00    +0.000 N 
ATOM      9  CA  ASN K   2     137.539 147.673 176.043  0.00  0.00    +0.000 C 
ATOM     10  C   ASN K   2     138.145 146.284 176.069  0.00  0.00    +0.000 C 
ATOM     11  O   ASN K   2     139.314 146.149 176.433  0.00  0.00    +0.000 OA
ATOM     12  CB  ASN K   2     137.405 148.205 177.463  0.00  0.00    +0.000 C 
ATOM     13  CG  ASN K   2     137.387 149.706 177.510  0.00  0.00    +0.000 C 
ATOM     14  OD1 ASN K   2     137.916 150.368 176.625  0.00  0.00    +0.000 OA
ATOM     15  ND2 ASN K   2     136.773 150.258 178.541  0.00  0.00    +0.000 N 
ATOM     16  H   THR K   1     132.957 147.284 173.703  0.00  0.00    +0.000 HD
ATOM     17  H   THR K   1     133.693 148.139 174.928  0.00  0.00    +0.000 HD
ATOM     18  H   THR K   1     134.048 146.527 174.709  0.00  0.00    +0.000 HD
ATOM     19  H   THR K   1     136.416 149.361 172.008  0.00  0.00    +0.000 HD
ATOM     20  H   ASN K   2     135.425 147.537 175.874  0.00  0.00    +0.000 HD
ATOM     21  H   ASN K   2     136.731 151.238 178.622  0.00  0.00    +0.000 HD
ATOM     22  H   ASN K   2     136.357 149.689 179.229  0.00  0.00    +0.000 HD
TER 
REMARK  Name = /data/user_data/xianyang/t3-aimnet-affinity-balanced/L2/Q8NER1/pocket.pdb
REMARK                            x       y       z     vdW  Elec       q    Type
REMARK                         _______ _______ _______ _____ _____    ______ ____
ATOM      1  N   LEU L   1     139.167 144.751 173.635  0.00  0.00    +0.000 N 
ATOM      2  CA  LEU L   1     140.310 144.763 172.735  0.00  0.00    +0.000 C 
ATOM      3  C   LEU L   1     141.611 144.919 173.495  0.00  0.00    +0.000 C 
ATOM      4  O   LEU L   1     142.661 144.475 173.020  0.00  0.00    +0.000 OA
ATOM      5  CB  LEU L   1     140.178 145.864 171.689  0.00  0.00    +0.000 C 
ATOM      6  CG  LEU L   1     139.241 145.596 170.515  0.00  0.00    +0.000 C 
ATOM      7  CD2 LEU L   1     137.779 145.618 170.903  0.00  0.00    +0.000 C 
ATOM      8  CD1 LEU L   1     139.527 146.601 169.425  0.00  0.00    +0.000 C 
ATOM      9  N   TYR L   2     141.562 145.518 174.683  0.00  0.00    +0.000 N 
ATOM     10  CA  TYR L   2     142.749 145.567 175.521  0.00  0.00    +0.000 C 
ATOM     11  C   TYR L   2     143.364 144.186 175.664  0.00  0.00    +0.000 C 
ATOM     12  O   TYR L   2     144.560 144.002 175.425  0.00  0.00    +0.000 OA
ATOM     13  CB  TYR L   2     142.392 146.142 176.888  0.00  0.00    +0.000 C 
ATOM     14  CG  TYR L   2     143.495 146.073 177.910  0.00  0.00    +0.000 A 
ATOM     15  CD2 TYR L   2     143.692 144.937 178.670  0.00  0.00    +0.000 A 
ATOM     16  CD1 TYR L   2     144.318 147.153 178.136  0.00  0.00    +0.000 A 
ATOM     17  CE2 TYR L   2     144.687 144.873 179.600  0.00  0.00    +0.000 A 
ATOM     18  CE1 TYR L   2     145.312 147.098 179.073  0.00  0.00    +0.000 A 
ATOM     19  CZ  TYR L   2     145.494 145.954 179.798  0.00  0.00    +0.000 A 
ATOM     20  OH  TYR L   2     146.492 145.890 180.734  0.00  0.00    +0.000 OA
ATOM     21  H   LEU L   1     138.309 144.645 173.094  0.00  0.00    +0.000 HD
ATOM     22  H   LEU L   1     139.135 145.628 174.155  0.00  0.00    +0.000 HD
ATOM     23  H   LEU L   1     139.256 143.972 174.287  0.00  0.00    +0.000 HD
ATOM     24  H   TYR L   2     140.722 145.928 174.994  0.00  0.00    +0.000 HD
ATOM     25  H   TYR L   2     147.050 146.629 180.875  0.00  0.00    +0.000 HD
TER 
REMARK  Name = /data/user_data/xianyang/t3-aimnet-affinity-balanced/L2/Q8NER1/pocket.pdb
REMARK                            x       y       z     vdW  Elec       q    Type
REMARK                         _______ _______ _______ _____ _____    ______ ____
ATOM      1  N   ARG M   1     146.120 142.133 173.731  0.00  0.00    +0.000 N 
ATOM      2  CA  ARG M   1     147.552 142.172 173.993  0.00  0.00    +0.000 C 
ATOM      3  C   ARG M   1     148.133 140.789 174.197  0.00  0.00    +0.000 C 
ATOM      4  O   ARG M   1     149.274 140.546 173.799  0.00  0.00    +0.000 OA
ATOM      5  CB  ARG M   1     147.830 142.963 175.257  0.00  0.00    +0.000 C 
ATOM      6  CG  ARG M   1     147.503 144.405 175.204  0.00  0.00    +0.000 C 
ATOM      7  CD  ARG M   1     147.608 144.892 176.600  0.00  0.00    +0.000 C 
ATOM      8  NE  ARG M   1     147.114 146.242 176.771  0.00  0.00    +0.000 N 
ATOM      9  CZ  ARG M   1     147.869 147.325 176.758  0.00  0.00    +0.000 C 
ATOM     10  NH1 ARG M   1     149.175 147.224 176.593  0.00  0.00    +0.000 N 
ATOM     11  NH2 ARG M   1     147.317 148.505 176.954  0.00  0.00    +0.000 N 
ATOM     12  H   ARG M   1     145.945 141.599 172.880  0.00  0.00    +0.000 HD
ATOM     13  H   ARG M   1     145.770 143.084 173.614  0.00  0.00    +0.000 HD
ATOM     14  H   ARG M   1     145.643 141.689 174.515  0.00  0.00    +0.000 HD
ATOM     15  H   ARG M   1     146.146 146.361 176.907  0.00  0.00    +0.000 HD
ATOM     16  H   ARG M   1     149.586 146.341 176.447  0.00  0.00    +0.000 HD
ATOM     17  H   ARG M   1     149.738 148.031 176.616  0.00  0.00    +0.000 HD
ATOM     18  H   ARG M   1     147.874 149.317 176.946  0.00  0.00    +0.000 HD
ATOM     19  H   ARG M   1     146.347 148.575 177.109  0.00  0.00    +0.000 HD
TER 
REMARK  Name = /data/user_data/xianyang/t3-aimnet-affinity-balanced/L2/Q8NER1/pocket.pdb
REMARK                            x       y       z     vdW  Elec       q    Type
REMARK                         _______ _______ _______ _____ _____    ______ ____
ATOM      1  N   ALA N   1     145.021 144.783 166.751  0.00  0.00    +0.000 N 
ATOM      2  CA  ALA N   1     144.482 145.902 167.513  0.00  0.00    +0.000 C 
ATOM      3  C   ALA N   1     145.399 147.114 167.462  0.00  0.00    +0.000 C 
ATOM      4  O   ALA N   1     144.923 148.257 167.449  0.00  0.00    +0.000 OA
ATOM      5  CB  ALA N   1     144.242 145.482 168.957  0.00  0.00    +0.000 C 
ATOM      6  N   VAL N   2     146.710 146.892 167.434  0.00  0.00    +0.000 N 
ATOM      7  CA  VAL N   2     147.628 148.014 167.286  0.00  0.00    +0.000 C 
ATOM      8  C   VAL N   2     147.402 148.706 165.951  0.00  0.00    +0.000 C 
ATOM      9  O   VAL N   2     147.395 149.940 165.868  0.00  0.00    +0.000 OA
ATOM     10  CB  VAL N   2     149.079 147.539 167.443  0.00  0.00    +0.000 C 
ATOM     11  CG1 VAL N   2     150.025 148.621 167.006  0.00  0.00    +0.000 C 
ATOM     12  CG2 VAL N   2     149.342 147.161 168.873  0.00  0.00    +0.000 C 
ATOM     13  H   ALA N   1     145.178 145.073 165.786  0.00  0.00    +0.000 HD
ATOM     14  H   ALA N   1     144.358 144.008 166.769  0.00  0.00    +0.000 HD
ATOM     15  H   ALA N   1     145.904 144.484 167.165  0.00  0.00    +0.000 HD
ATOM     16  H   VAL N   2     147.058 145.975 167.513  0.00  0.00    +0.000 HD
TER 
REMARK  Name = /data/user_data/xianyang/t3-aimnet-affinity-balanced/L2/Q8NER1/pocket.pdb
REMARK                            x       y       z     vdW  Elec       q    Type
REMARK                         _______ _______ _______ _____ _____    ______ ____
ATOM      1  N   ILE O   1     144.589 148.770 164.366  0.00  0.00    +0.000 N 
ATOM      2  CA  ILE O   1     143.317 149.478 164.487  0.00  0.00    +0.000 C 
ATOM      3  C   ILE O   1     143.535 150.850 165.103  0.00  0.00    +0.000 C 
ATOM      4  O   ILE O   1     143.017 151.865 164.618  0.00  0.00    +0.000 OA
ATOM      5  CB  ILE O   1     142.319 148.653 165.312  0.00  0.00    +0.000 C 
ATOM      6  CG1 ILE O   1     141.819 147.465 164.508  0.00  0.00    +0.000 C 
ATOM      7  CG2 ILE O   1     141.164 149.510 165.741  0.00  0.00    +0.000 C 
ATOM      8  CD1 ILE O   1     140.866 146.606 165.268  0.00  0.00    +0.000 C 
ATOM      9  N   GLU O   2     144.304 150.897 166.189  0.00  0.00    +0.000 N 
ATOM     10  CA  GLU O   2     144.666 152.179 166.787  0.00  0.00    +0.000 C 
ATOM     11  C   GLU O   2     145.340 153.097 165.779  0.00  0.00    +0.000 C 
ATOM     12  O   GLU O   2     144.987 154.280 165.665  0.00  0.00    +0.000 OA
ATOM     13  CB  GLU O   2     145.607 151.959 167.957  0.00  0.00    +0.000 C 
ATOM     14  CG  GLU O   2     146.290 153.227 168.379  0.00  0.00    +0.000 C 
ATOM     15  CD  GLU O   2     147.543 152.965 169.172  0.00  0.00    +0.000 C 
ATOM     16  OE1 GLU O   2     147.843 151.784 169.435  0.00  0.00    +0.000 OA
ATOM     17  OE2 GLU O   2     148.248 153.936 169.497  0.00  0.00    +0.000 OA
ATOM     18  N   LYS O   3     146.340 152.578 165.068  0.00  0.00    +0.000 N 
ATOM     19  CA  LYS O   3     147.086 153.413 164.135  0.00  0.00    +0.000 C 
ATOM     20  C   LYS O   3     146.177 153.994 163.065  0.00  0.00    +0.000 C 
ATOM     21  O   LYS O   3     146.324 155.159 162.693  0.00  0.00    +0.000 OA
ATOM     22  CB  LYS O   3     148.221 152.621 163.493  0.00  0.00    +0.000 C 
ATOM     23  CG  LYS O   3     149.277 152.061 164.437  0.00  0.00    +0.000 C 
ATOM     24  CD  LYS O   3     150.179 153.131 165.040  0.00  0.00    +0.000 C 
ATOM     25  CE  LYS O   3     149.698 153.622 166.390  0.00  0.00    +0.000 C 
ATOM     26  NZ  LYS O   3     150.661 154.584 166.991  0.00  0.00    +0.000 N 
ATOM     27  H   ILE O   1     145.239 149.331 163.816  0.00  0.00    +0.000 HD
ATOM     28  H   ILE O   1     144.437 147.874 163.903  0.00  0.00    +0.000 HD
ATOM     29  H   ILE O   1     144.979 148.610 165.295  0.00  0.00    +0.000 HD
ATOM     30  H   GLU O   2     144.631 150.061 166.592  0.00  0.00    +0.000 HD
ATOM     31  H   LYS O   3     146.576 151.628 165.173  0.00  0.00    +0.000 HD
ATOM     32  H   LYS O   3     151.560 154.123 167.129  0.00  0.00    +0.000 HD
ATOM     33  H   LYS O   3     150.303 154.907 167.890  0.00  0.00    +0.000 HD
ATOM     34  H   LYS O   3     150.780 155.381 166.366  0.00  0.00    +0.000 HD
TER 
REMARK  Name = /data/user_data/xianyang/t3-aimnet-affinity-balanced/L2/Q8NER1/pocket.pdb
REMARK                            x       y       z     vdW  Elec       q    Type
REMARK                         _______ _______ _______ _____ _____    ______ ____
ATOM      1  N   ILE P   1     142.852 154.559 163.345  0.00  0.00    +0.000 N 
ATOM      2  CA  ILE P   1     141.971 155.544 163.959  0.00  0.00    +0.000 C 
ATOM      3  C   ILE P   1     142.692 156.870 164.114  0.00  0.00    +0.000 C 
ATOM      4  O   ILE P   1     142.110 157.939 163.902  0.00  0.00    +0.000 OA
ATOM      5  CB  ILE P   1     141.449 155.027 165.306  0.00  0.00    +0.000 C 
ATOM      6  CG1 ILE P   1     140.362 153.998 165.076  0.00  0.00    +0.000 C 
ATOM      7  CG2 ILE P   1     140.884 156.153 166.119  0.00  0.00    +0.000 C 
ATOM      8  CD1 ILE P   1     139.880 153.386 166.330  0.00  0.00    +0.000 C 
ATOM      9  N   LEU P   2     143.973 156.827 164.453  0.00  0.00    +0.000 N 
ATOM     10  CA  LEU P   2     144.691 158.073 164.681  0.00  0.00    +0.000 C 
ATOM     11  C   LEU P   2     145.216 158.720 163.405  0.00  0.00    +0.000 C 
ATOM     12  O   LEU P   2     145.140 159.945 163.274  0.00  0.00    +0.000 OA
ATOM     13  CB  LEU P   2     145.840 157.839 165.657  0.00  0.00    +0.000 C 
ATOM     14  CG  LEU P   2     145.327 157.442 167.037  0.00  0.00    +0.000 C 
ATOM     15  CD2 LEU P   2     146.475 157.219 167.997  0.00  0.00    +0.000 C 
ATOM     16  CD1 LEU P   2     144.369 158.491 167.560  0.00  0.00    +0.000 C 
ATOM     17  H   ILE P   1     143.191 154.916 162.452  0.00  0.00    +0.000 HD
ATOM     18  H   ILE P   1     142.338 153.692 163.192  0.00  0.00    +0.000 HD
ATOM     19  H   ILE P   1     143.644 154.380 163.962  0.00  0.00    +0.000 HD
ATOM     20  H   LEU P   2     144.434 155.962 164.549  0.00  0.00    +0.000 HD
TER 
REMARK  Name = /data/user_data/xianyang/t3-aimnet-affinity-balanced/L2/Q8NER1/pocket.pdb
REMARK                            x       y       z     vdW  Elec       q    Type
REMARK                         _______ _______ _______ _____ _____    ______ ____
ATOM      1  N   ILE Q   1     155.214 147.865 168.704  0.00  0.00    +0.000 N 
ATOM      2  CA  ILE Q   1     154.318 148.459 169.687  0.00  0.00    +0.000 C 
ATOM      3  C   ILE Q   1     153.606 147.376 170.473  0.00  0.00    +0.000 C 
ATOM      4  O   ILE Q   1     153.403 147.505 171.682  0.00  0.00    +0.000 OA
ATOM      5  CB  ILE Q   1     153.322 149.412 169.011  0.00  0.00    +0.000 C 
ATOM      6  CG1 ILE Q   1     154.058 150.588 168.389  0.00  0.00    +0.000 C 
ATOM      7  CG2 ILE Q   1     152.326 149.921 170.016  0.00  0.00    +0.000 C 
ATOM      8  CD1 ILE Q   1     153.148 151.667 167.892  0.00  0.00    +0.000 C 
ATOM      9  H   ILE Q   1     155.686 148.604 168.183  0.00  0.00    +0.000 HD
ATOM     10  H   ILE Q   1     154.676 147.286 168.060  0.00  0.00    +0.000 HD
ATOM     11  H   ILE Q   1     155.908 147.289 169.181  0.00  0.00    +0.000 HD
TER 
REMARK  Name = /data/user_data/xianyang/t3-aimnet-affinity-balanced/L2/Q8NER1/pocket.pdb
REMARK                            x       y       z     vdW  Elec       q    Type
REMARK                         _______ _______ _______ _____ _____    ______ ____
ATOM      1  N   LEU R   1     155.984 146.073 173.052  0.00  0.00    +0.000 N 
ATOM      2  CA  LEU R   1     156.108 147.007 174.166  0.00  0.00    +0.000 C 
ATOM      3  C   LEU R   1     154.872 146.987 175.057  0.00  0.00    +0.000 C 
ATOM      4  O   LEU R   1     154.987 147.104 176.282  0.00  0.00    +0.000 OA
ATOM      5  CB  LEU R   1     156.369 148.412 173.641  0.00  0.00    +0.000 C 
ATOM      6  CG  LEU R   1     156.232 149.536 174.659  0.00  0.00    +0.000 C 
ATOM      7  CD2 LEU R   1     157.379 149.485 175.631  0.00  0.00    +0.000 C 
ATOM      8  CD1 LEU R   1     156.196 150.873 173.959  0.00  0.00    +0.000 C 
ATOM      9  N   GLN R   2     153.687 146.845 174.466  0.00  0.00    +0.000 N 
ATOM     10  CA  GLN R   2     152.462 146.750 175.254  0.00  0.00    +0.000 C 
ATOM     11  C   GLN R   2     152.488 145.525 176.152  0.00  0.00    +0.000 C 
ATOM     12  O   GLN R   2     152.140 145.594 177.338  0.00  0.00    +0.000 OA
ATOM     13  CB  GLN R   2     151.257 146.699 174.323  0.00  0.00    +0.000 C 
ATOM     14  CG  GLN R   2     150.888 148.030 173.728  0.00  0.00    +0.000 C 
ATOM     15  CD  GLN R   2     149.752 147.925 172.748  0.00  0.00    +0.000 C 
ATOM     16  OE1 GLN R   2     149.216 146.847 172.517  0.00  0.00    +0.000 OA
ATOM     17  NE2 GLN R   2     149.382 149.047 172.153  0.00  0.00    +0.000 N 
ATOM     18  H   LEU R   1     156.827 146.113 172.479  0.00  0.00    +0.000 HD
ATOM     19  H   LEU R   1     155.175 146.326 172.485  0.00  0.00    +0.000 HD
ATOM     20  H   LEU R   1     155.864 145.127 173.413  0.00  0.00    +0.000 HD
ATOM     21  H   GLN R   2     153.637 146.804 173.484  0.00  0.00    +0.000 HD
ATOM     22  H   GLN R   2     148.644 149.039 171.502  0.00  0.00    +0.000 HD
ATOM     23  H   GLN R   2     149.845 149.891 172.361  0.00  0.00    +0.000 HD
TER 
REMARK  Name = /data/user_data/xianyang/t3-aimnet-affinity-balanced/L2/Q8NER1/pocket.pdb
REMARK                            x       y       z     vdW  Elec       q    Type
REMARK                         _______ _______ _______ _____ _____    ______ ____
ATOM      1  N   ILE S   1     154.774 146.198 179.073  0.00  0.00    +0.000 N 
ATOM      2  CA  ILE S   1     154.153 146.980 180.136  0.00  0.00    +0.000 C 
ATOM      3  C   ILE S   1     153.212 146.110 180.951  0.00  0.00    +0.000 C 
ATOM      4  O   ILE S   1     153.171 146.198 182.184  0.00  0.00    +0.000 OA
ATOM      5  CB  ILE S   1     153.420 148.197 179.555  0.00  0.00    +0.000 C 
ATOM      6  CG1 ILE S   1     154.396 149.104 178.825  0.00  0.00    +0.000 C 
ATOM      7  CG2 ILE S   1     152.741 148.965 180.651  0.00  0.00    +0.000 C 
ATOM      8  CD1 ILE S   1     153.724 150.205 178.074  0.00  0.00    +0.000 C 
ATOM      9  H   ILE S   1     155.402 146.795 178.535  0.00  0.00    +0.000 HD
ATOM     10  H   ILE S   1     154.051 145.824 178.459  0.00  0.00    +0.000 HD
ATOM     11  H   ILE S   1     155.303 145.428 179.482  0.00  0.00    +0.000 HD
TER 
