REMARK  Name = /data/user_data/xianyang/t3-aimnet-affinity-balanced/L2/P18825/pocket.pdb
REMARK                            x       y       z     vdW  Elec       q    Type
REMARK                         _______ _______ _______ _____ _____    ______ ____
ATOM      1  N   SER A   1      -3.214  -2.895  57.041  0.00  0.00    +0.000 N 
ATOM      2  CA  SER A   1      -4.652  -2.778  57.375  0.00  0.00    +0.000 C 
ATOM      3  CB  SER A   1      -5.144  -4.075  57.992  0.00  0.00    +0.000 C 
ATOM      4  OG  SER A   1      -5.831  -4.034  59.009  0.00  0.00    +0.000 OA
ATOM      5  C   SER A   1      -5.502  -2.468  56.140  0.00  0.00    +0.000 C 
ATOM      6  O   SER A   1      -5.362  -1.141  55.661  0.00  0.00    +0.000 OA
ATOM      7  H   SER A   1      -2.889  -2.021  56.627  0.00  0.00    +0.000 HD
ATOM      8  H   SER A   1      -3.080  -3.657  56.376  0.00  0.00    +0.000 HD
ATOM      9  H   SER A   1      -2.682  -3.088  57.890  0.00  0.00    +0.000 HD
ATOM     10  H   SER A   1      -4.444  -0.992  55.385  0.00  0.00    +0.000 HD
TER 
REMARK  Name = /data/user_data/xianyang/t3-aimnet-affinity-balanced/L2/P18825/pocket.pdb
REMARK                            x       y       z     vdW  Elec       q    Type
REMARK                         _______ _______ _______ _____ _____    ______ ____
ATOM      1  N   TYR B   1       1.784   4.779  57.059  0.00  0.00    +0.000 N 
ATOM      2  CA  TYR B   1       0.693   3.899  56.656  0.00  0.00    +0.000 C 
ATOM      3  C   TYR B   1      -0.610   4.678  56.443  0.00  0.00    +0.000 C 
ATOM      4  O   TYR B   1      -1.243   4.511  55.400  0.00  0.00    +0.000 OA
ATOM      5  CB  TYR B   1       0.508   2.744  57.651  0.00  0.00    +0.000 C 
ATOM      6  CG  TYR B   1      -0.873   2.120  57.646  0.00  0.00    +0.000 A 
ATOM      7  CD1 TYR B   1      -1.241   1.195  56.672  0.00  0.00    +0.000 A 
ATOM      8  CD2 TYR B   1      -1.793   2.414  58.645  0.00  0.00    +0.000 A 
ATOM      9  CE1 TYR B   1      -2.493   0.585  56.690  0.00  0.00    +0.000 A 
ATOM     10  CE2 TYR B   1      -3.055   1.828  58.659  0.00  0.00    +0.000 A 
ATOM     11  CZ  TYR B   1      -3.399   0.913  57.681  0.00  0.00    +0.000 A 
ATOM     12  OH  TYR B   1      -4.651   0.365  57.700  0.00  0.00    +0.000 OA
ATOM     13  N   LEU B   2      -0.985   5.544  57.410  0.00  0.00    +0.000 N 
ATOM     14  CA  LEU B   2      -2.188   6.376  57.330  0.00  0.00    +0.000 C 
ATOM     15  C   LEU B   2      -2.092   7.454  56.263  0.00  0.00    +0.000 C 
ATOM     16  O   LEU B   2      -3.074   7.673  55.554  0.00  0.00    +0.000 OA
ATOM     17  CB  LEU B   2      -2.556   6.998  58.682  0.00  0.00    +0.000 C 
ATOM     18  CG  LEU B   2      -3.061   6.047  59.761  0.00  0.00    +0.000 C 
ATOM     19  CD2 LEU B   2      -3.328   6.797  61.007  0.00  0.00    +0.000 C 
ATOM     20  CD1 LEU B   2      -4.330   5.320  59.336  0.00  0.00    +0.000 C 
ATOM     21  H   TYR B   1       1.881   5.534  56.380  0.00  0.00    +0.000 HD
ATOM     22  H   TYR B   1       2.653   4.246  57.101  0.00  0.00    +0.000 HD
ATOM     23  H   TYR B   1       1.581   5.173  57.978  0.00  0.00    +0.000 HD
ATOM     24  H   TYR B   1      -4.900  -0.257  57.045  0.00  0.00    +0.000 HD
ATOM     25  H   LEU B   2      -0.419   5.620  58.212  0.00  0.00    +0.000 HD
TER 
REMARK  Name = /data/user_data/xianyang/t3-aimnet-affinity-balanced/L2/P18825/pocket.pdb
REMARK                            x       y       z     vdW  Elec       q    Type
REMARK                         _______ _______ _______ _____ _____    ______ ____
ATOM      1  N   ASP C   1      -2.276   5.592  52.791  0.00  0.00    +0.000 N 
ATOM      2  CA  ASP C   1      -3.593   4.985  52.610  0.00  0.00    +0.000 C 
ATOM      3  C   ASP C   1      -4.621   6.004  52.107  0.00  0.00    +0.000 C 
ATOM      4  O   ASP C   1      -5.407   5.694  51.200  0.00  0.00    +0.000 OA
ATOM      5  CB  ASP C   1      -4.016   4.264  53.891  0.00  0.00    +0.000 C 
ATOM      6  CG  ASP C   1      -5.469   4.383  54.238  0.00  0.00    +0.000 C 
ATOM      7  OD1 ASP C   1      -6.272   3.625  53.669  0.00  0.00    +0.000 OA
ATOM      8  OD2 ASP C   1      -5.799   5.233  55.081  0.00  0.00    +0.000 OA
ATOM      9  N   VAL C   2      -4.543   7.235  52.641  0.00  0.00    +0.000 N 
ATOM     10  CA  VAL C   2      -5.359   8.367  52.222  0.00  0.00    +0.000 C 
ATOM     11  C   VAL C   2      -4.872   8.859  50.823  0.00  0.00    +0.000 C 
ATOM     12  O   VAL C   2      -5.710   9.050  49.934  0.00  0.00    +0.000 OA
ATOM     13  CB  VAL C   2      -5.346   9.492  53.291  0.00  0.00    +0.000 C 
ATOM     14  CG1 VAL C   2      -6.042  10.744  52.790  0.00  0.00    +0.000 C 
ATOM     15  CG2 VAL C   2      -5.972   9.025  54.596  0.00  0.00    +0.000 C 
ATOM     16  H   ASP C   1      -2.001   6.070  51.933  0.00  0.00    +0.000 HD
ATOM     17  H   ASP C   1      -1.594   4.866  53.009  0.00  0.00    +0.000 HD
ATOM     18  H   ASP C   1      -2.314   6.264  53.558  0.00  0.00    +0.000 HD
ATOM     19  H   VAL C   2      -3.891   7.382  53.364  0.00  0.00    +0.000 HD
TER 
REMARK  Name = /data/user_data/xianyang/t3-aimnet-affinity-balanced/L2/P18825/pocket.pdb
REMARK                            x       y       z     vdW  Elec       q    Type
REMARK                         _______ _______ _______ _____ _____    ______ ____
ATOM      1  N   CYS D   1      -5.833   6.676  47.776  0.00  0.00    +0.000 N 
ATOM      2  CA  CYS D   1      -7.280   6.764  47.536  0.00  0.00    +0.000 C 
ATOM      3  C   CYS D   1      -7.635   8.077  46.818  0.00  0.00    +0.000 C 
ATOM      4  O   CYS D   1      -8.527   8.097  45.965  0.00  0.00    +0.000 OA
ATOM      5  CB  CYS D   1      -8.071   6.598  48.833  0.00  0.00    +0.000 C 
ATOM      6  SG  CYS D   1      -9.868   6.755  48.629  0.00  0.00    +0.000 S 
ATOM      7  N   THR D   2      -6.941   9.171  47.185  0.00  0.00    +0.000 N 
ATOM      8  CA  THR D   2      -7.144  10.501  46.604  0.00  0.00    +0.000 C 
ATOM      9  C   THR D   2      -6.526  10.579  45.228  0.00  0.00    +0.000 C 
ATOM     10  O   THR D   2      -7.169  11.118  44.324  0.00  0.00    +0.000 OA
ATOM     11  CB  THR D   2      -6.625  11.591  47.540  0.00  0.00    +0.000 C 
ATOM     12  OG1 THR D   2      -7.070  11.294  48.867  0.00  0.00    +0.000 OA
ATOM     13  CG2 THR D   2      -7.068  12.978  47.116  0.00  0.00    +0.000 C 
ATOM     14  H   CYS D   1      -5.334   6.790  46.894  0.00  0.00    +0.000 HD
ATOM     15  H   CYS D   1      -5.610   5.765  48.177  0.00  0.00    +0.000 HD
ATOM     16  H   CYS D   1      -5.550   7.411  48.424  0.00  0.00    +0.000 HD
ATOM     17  H   CYS D   1     -10.166   8.005  48.183  0.00  0.00    +0.000 HD
ATOM     18  H   THR D   2      -6.256   9.071  47.885  0.00  0.00    +0.000 HD
ATOM     19  H   THR D   2      -8.040  11.290  48.890  0.00  0.00    +0.000 HD
TER 
REMARK  Name = /data/user_data/xianyang/t3-aimnet-affinity-balanced/L2/P18825/pocket.pdb
REMARK                            x       y       z     vdW  Elec       q    Type
REMARK                         _______ _______ _______ _____ _____    ______ ____
ATOM      1  N   SER E   1      -4.861  15.075  50.395  0.00  0.00    +0.000 N 
ATOM      2  CA  SER E   1      -4.578  14.061  51.412  0.00  0.00    +0.000 C 
ATOM      3  C   SER E   1      -4.028  14.679  52.670  0.00  0.00    +0.000 C 
ATOM      4  O   SER E   1      -4.593  14.453  53.738  0.00  0.00    +0.000 OA
ATOM      5  CB  SER E   1      -3.597  13.019  50.885  0.00  0.00    +0.000 C 
ATOM      6  OG  SER E   1      -4.115  12.398  49.724  0.00  0.00    +0.000 OA
ATOM      7  H   SER E   1      -5.231  14.624  49.559  0.00  0.00    +0.000 HD
ATOM      8  H   SER E   1      -4.001  15.571  50.161  0.00  0.00    +0.000 HD
ATOM      9  H   SER E   1      -5.548  15.737  50.756  0.00  0.00    +0.000 HD
ATOM     10  H   SER E   1      -4.258  13.067  49.036  0.00  0.00    +0.000 HD
TER 
REMARK  Name = /data/user_data/xianyang/t3-aimnet-affinity-balanced/L2/P18825/pocket.pdb
REMARK                            x       y       z     vdW  Elec       q    Type
REMARK                         _______ _______ _______ _____ _____    ______ ____
ATOM      1  N   CYS F   1      -3.555   2.886  66.015  0.00  0.00    +0.000 N 
ATOM      2  CA  CYS F   1      -3.173   3.663  64.835  0.00  0.00    +0.000 C 
ATOM      3  C   CYS F   1      -4.403   4.279  64.173  0.00  0.00    +0.000 C 
ATOM      4  O   CYS F   1      -4.802   3.911  63.065  0.00  0.00    +0.000 OA
ATOM      5  CB  CYS F   1      -2.367   2.807  63.859  0.00  0.00    +0.000 C 
ATOM      6  SG  CYS F   1      -1.566   3.742  62.529  0.00  0.00    +0.000 S 
ATOM      7  N   GLY F   2      -5.013   5.211  64.876  0.00  0.00    +0.000 N 
ATOM      8  CA  GLY F   2      -6.213   5.861  64.369  0.00  0.00    +0.000 C 
ATOM      9  C   GLY F   2      -5.951   7.071  63.500  0.00  0.00    +0.000 C 
ATOM     10  O   GLY F   2      -4.868   7.663  63.551  0.00  0.00    +0.000 OA
ATOM     11  N   LEU F   3      -6.973   7.466  62.733  0.00  0.00    +0.000 N 
ATOM     12  CA  LEU F   3      -6.954   8.639  61.867  0.00  0.00    +0.000 C 
ATOM     13  C   LEU F   3      -7.658   9.785  62.592  0.00  0.00    +0.000 C 
ATOM     14  O   LEU F   3      -8.519   9.537  63.434  0.00  0.00    +0.000 OA
ATOM     15  CB  LEU F   3      -7.670   8.303  60.546  0.00  0.00    +0.000 C 
ATOM     16  CG  LEU F   3      -7.293   9.108  59.306  0.00  0.00    +0.000 C 
ATOM     17  CD2 LEU F   3      -5.869   8.814  58.864  0.00  0.00    +0.000 C 
ATOM     18  CD1 LEU F   3      -8.239   8.792  58.173  0.00  0.00    +0.000 C 
ATOM     19  H   CYS F   1      -2.721   2.484  66.442  0.00  0.00    +0.000 HD
ATOM     20  H   CYS F   1      -4.190   2.137  65.738  0.00  0.00    +0.000 HD
ATOM     21  H   CYS F   1      -4.021   3.496  66.687  0.00  0.00    +0.000 HD
ATOM     22  H   CYS F   1      -0.666   4.610  63.064  0.00  0.00    +0.000 HD
ATOM     23  H   GLY F   2      -4.653   5.471  65.755  0.00  0.00    +0.000 HD
ATOM     24  H   LEU F   3      -7.796   6.927  62.755  0.00  0.00    +0.000 HD
TER 
REMARK  Name = /data/user_data/xianyang/t3-aimnet-affinity-balanced/L2/P18825/pocket.pdb
REMARK                            x       y       z     vdW  Elec       q    Type
REMARK                         _______ _______ _______ _____ _____    ______ ____
ATOM      1  N   TYR G   1     -12.210  17.641  59.952  0.00  0.00    +0.000 N 
ATOM      2  CA  TYR G   1     -11.243  16.947  59.105  0.00  0.00    +0.000 C 
ATOM      3  C   TYR G   1     -11.977  15.799  58.377  0.00  0.00    +0.000 C 
ATOM      4  O   TYR G   1     -11.741  15.598  57.180  0.00  0.00    +0.000 OA
ATOM      5  CB  TYR G   1     -10.021  16.411  59.881  0.00  0.00    +0.000 C 
ATOM      6  CG  TYR G   1      -9.364  15.248  59.159  0.00  0.00    +0.000 A 
ATOM      7  CD1 TYR G   1      -8.504  15.465  58.083  0.00  0.00    +0.000 A 
ATOM      8  CD2 TYR G   1      -9.712  13.933  59.455  0.00  0.00    +0.000 A 
ATOM      9  CE1 TYR G   1      -7.952  14.404  57.372  0.00  0.00    +0.000 A 
ATOM     10  CE2 TYR G   1      -9.174  12.867  58.747  0.00  0.00    +0.000 A 
ATOM     11  CZ  TYR G   1      -8.301  13.105  57.698  0.00  0.00    +0.000 A 
ATOM     12  OH  TYR G   1      -7.795  12.045  56.983  0.00  0.00    +0.000 OA
ATOM     13  H   TYR G   1     -12.989  17.969  59.381  0.00  0.00    +0.000 HD
ATOM     14  H   TYR G   1     -11.759  18.438  60.401  0.00  0.00    +0.000 HD
ATOM     15  H   TYR G   1     -12.558  17.001  60.666  0.00  0.00    +0.000 HD
ATOM     16  H   TYR G   1      -7.204  12.199  56.272  0.00  0.00    +0.000 HD
TER 
REMARK  Name = /data/user_data/xianyang/t3-aimnet-affinity-balanced/L2/P18825/pocket.pdb
REMARK                            x       y       z     vdW  Elec       q    Type
REMARK                         _______ _______ _______ _____ _____    ______ ____
ATOM      1  N   SER H   1     -12.289  16.008  54.313  0.00  0.00    +0.000 N 
ATOM      2  CA  SER H   1     -11.568  14.896  53.668  0.00  0.00    +0.000 C 
ATOM      3  C   SER H   1     -12.458  14.006  52.760  0.00  0.00    +0.000 C 
ATOM      4  O   SER H   1     -11.978  13.497  51.746  0.00  0.00    +0.000 OA
ATOM      5  CB  SER H   1     -10.818  14.056  54.701  0.00  0.00    +0.000 C 
ATOM      6  OG  SER H   1     -11.678  13.301  55.539  0.00  0.00    +0.000 OA
ATOM      7  N   CYS H   2     -13.745  13.844  53.112  0.00  0.00    +0.000 N 
ATOM      8  CA  CYS H   2     -14.685  13.068  52.312  0.00  0.00    +0.000 C 
ATOM      9  C   CYS H   2     -15.049  13.847  51.074  0.00  0.00    +0.000 C 
ATOM     10  O   CYS H   2     -15.157  13.269  50.000  0.00  0.00    +0.000 OA
ATOM     11  CB  CYS H   2     -15.919  12.695  53.127  0.00  0.00    +0.000 C 
ATOM     12  SG  CYS H   2     -15.610  11.455  54.412  0.00  0.00    +0.000 S 
ATOM     13  H   SER H   1     -12.780  16.552  53.603  0.00  0.00    +0.000 HD
ATOM     14  H   SER H   1     -11.623  16.608  54.800  0.00  0.00    +0.000 HD
ATOM     15  H   SER H   1     -12.963  15.634  54.981  0.00  0.00    +0.000 HD
ATOM     16  H   SER H   1     -12.248  13.903  56.044  0.00  0.00    +0.000 HD
ATOM     17  H   CYS H   2     -14.065  14.266  53.942  0.00  0.00    +0.000 HD
ATOM     18  H   CYS H   2     -15.198  10.295  53.833  0.00  0.00    +0.000 HD
TER 
REMARK  Name = /data/user_data/xianyang/t3-aimnet-affinity-balanced/L2/P18825/pocket.pdb
REMARK                            x       y       z     vdW  Elec       q    Type
REMARK                         _______ _______ _______ _____ _____    ______ ____
ATOM      1  N   SER I   1     -11.470  14.072  48.873  0.00  0.00    +0.000 N 
ATOM      2  CA  SER I   1     -11.054  12.815  48.237  0.00  0.00    +0.000 C 
ATOM      3  C   SER I   1     -12.153  12.013  47.546  0.00  0.00    +0.000 C 
ATOM      4  O   SER I   1     -11.809  11.144  46.743  0.00  0.00    +0.000 OA
ATOM      5  CB  SER I   1     -10.332  11.918  49.226  0.00  0.00    +0.000 C 
ATOM      6  OG  SER I   1      -9.192  12.600  49.704  0.00  0.00    +0.000 OA
ATOM      7  N   PHE I   2     -13.446  12.261  47.843  0.00  0.00    +0.000 N 
ATOM      8  CA  PHE I   2     -14.473  11.456  47.206  0.00  0.00    +0.000 C 
ATOM      9  C   PHE I   2     -15.544  12.255  46.492  0.00  0.00    +0.000 C 
ATOM     10  O   PHE I   2     -15.618  12.144  45.278  0.00  0.00    +0.000 OA
ATOM     11  CB  PHE I   2     -15.102  10.441  48.173  0.00  0.00    +0.000 C 
ATOM     12  CG  PHE I   2     -16.115   9.518  47.527  0.00  0.00    +0.000 A 
ATOM     13  CD1 PHE I   2     -15.704   8.402  46.800  0.00  0.00    +0.000 A 
ATOM     14  CD2 PHE I   2     -17.480   9.765  47.640  0.00  0.00    +0.000 A 
ATOM     15  CE1 PHE I   2     -16.644   7.551  46.198  0.00  0.00    +0.000 A 
ATOM     16  CE2 PHE I   2     -18.418   8.913  47.036  0.00  0.00    +0.000 A 
ATOM     17  CZ  PHE I   2     -17.992   7.817  46.316  0.00  0.00    +0.000 A 
ATOM     18  H   SER I   1     -11.952  14.656  48.189  0.00  0.00    +0.000 HD
ATOM     19  H   SER I   1     -10.648  14.565  49.222  0.00  0.00    +0.000 HD
ATOM     20  H   SER I   1     -12.099  13.868  49.650  0.00  0.00    +0.000 HD
ATOM     21  H   SER I   1      -8.609  12.816  48.960  0.00  0.00    +0.000 HD
ATOM     22  H   PHE I   2     -13.688  12.973  48.478  0.00  0.00    +0.000 HD
TER 
REMARK  Name = /data/user_data/xianyang/t3-aimnet-affinity-balanced/L2/P18825/pocket.pdb
REMARK                            x       y       z     vdW  Elec       q    Type
REMARK                         _______ _______ _______ _____ _____    ______ ____
ATOM      1  N   TRP J   1     -16.069   2.792  46.548  0.00  0.00    +0.000 N 
ATOM      2  CA  TRP J   1     -15.791   3.714  47.642  0.00  0.00    +0.000 C 
ATOM      3  C   TRP J   1     -17.008   4.395  48.226  0.00  0.00    +0.000 C 
ATOM      4  O   TRP J   1     -16.887   4.963  49.312  0.00  0.00    +0.000 OA
ATOM      5  CB  TRP J   1     -14.741   4.748  47.246  0.00  0.00    +0.000 C 
ATOM      6  CG  TRP J   1     -13.368   4.169  47.170  0.00  0.00    +0.000 C 
ATOM      7  CD1 TRP J   1     -12.677   3.829  46.040  0.00  0.00    +0.000 C 
ATOM      8  CD2 TRP J   1     -12.537   3.801  48.281  0.00  0.00    +0.000 C 
ATOM      9  NE1 TRP J   1     -11.455   3.296  46.376  0.00  0.00    +0.000 NA
ATOM     10  CE2 TRP J   1     -11.348   3.253  47.750  0.00  0.00    +0.000 C 
ATOM     11  CE3 TRP J   1     -12.692   3.860  49.680  0.00  0.00    +0.000 C 
ATOM     12  CZ2 TRP J   1     -10.297   2.804  48.575  0.00  0.00    +0.000 C 
ATOM     13  CZ3 TRP J   1     -11.674   3.365  50.488  0.00  0.00    +0.000 C 
ATOM     14  CH2 TRP J   1     -10.496   2.842  49.936  0.00  0.00    +0.000 C 
ATOM     15  H   TRP J   1     -15.195   2.382  46.219  0.00  0.00    +0.000 HD
ATOM     16  H   TRP J   1     -16.517   3.297  45.783  0.00  0.00    +0.000 HD
ATOM     17  H   TRP J   1     -16.689   2.052  46.876  0.00  0.00    +0.000 HD
TER 
REMARK  Name = /data/user_data/xianyang/t3-aimnet-affinity-balanced/L2/P18825/pocket.pdb
REMARK                            x       y       z     vdW  Elec       q    Type
REMARK                         _______ _______ _______ _____ _____    ______ ____
ATOM      1  N   PHE K   1     -18.090   3.182  52.119  0.00  0.00    +0.000 N 
ATOM      2  CA  PHE K   1     -17.203   3.760  53.135  0.00  0.00    +0.000 C 
ATOM      3  C   PHE K   1     -17.318   5.262  53.237  0.00  0.00    +0.000 C 
ATOM      4  O   PHE K   1     -17.474   5.772  54.337  0.00  0.00    +0.000 OA
ATOM      5  CB  PHE K   1     -15.729   3.382  52.897  0.00  0.00    +0.000 C 
ATOM      6  CG  PHE K   1     -14.740   4.182  53.721  0.00  0.00    +0.000 A 
ATOM      7  CD2 PHE K   1     -14.433   3.809  55.029  0.00  0.00    +0.000 A 
ATOM      8  CD1 PHE K   1     -14.092   5.289  53.180  0.00  0.00    +0.000 A 
ATOM      9  CE2 PHE K   1     -13.514   4.541  55.788  0.00  0.00    +0.000 A 
ATOM     10  CE1 PHE K   1     -13.177   6.023  53.939  0.00  0.00    +0.000 A 
ATOM     11  CZ  PHE K   1     -12.897   5.648  55.243  0.00  0.00    +0.000 A 
ATOM     12  N   PHE K   2     -17.181   5.981  52.114  0.00  0.00    +0.000 N 
ATOM     13  CA  PHE K   2     -17.196   7.446  52.132  0.00  0.00    +0.000 C 
ATOM     14  C   PHE K   2     -18.525   8.060  52.602  0.00  0.00    +0.000 C 
ATOM     15  O   PHE K   2     -18.500   9.130  53.193  0.00  0.00    +0.000 OA
ATOM     16  CB  PHE K   2     -16.745   8.024  50.791  0.00  0.00    +0.000 C 
ATOM     17  CG  PHE K   2     -15.239   8.120  50.748  0.00  0.00    +0.000 A 
ATOM     18  CD2 PHE K   2     -14.562   9.065  51.513  0.00  0.00    +0.000 A 
ATOM     19  CD1 PHE K   2     -14.492   7.252  49.964  0.00  0.00    +0.000 A 
ATOM     20  CE2 PHE K   2     -13.171   9.141  51.485  0.00  0.00    +0.000 A 
ATOM     21  CE1 PHE K   2     -13.094   7.348  49.924  0.00  0.00    +0.000 A 
ATOM     22  CZ  PHE K   2     -12.445   8.285  50.690  0.00  0.00    +0.000 A 
ATOM     23  H   PHE K   1     -17.968   2.170  52.097  0.00  0.00    +0.000 HD
ATOM     24  H   PHE K   1     -17.860   3.572  51.205  0.00  0.00    +0.000 HD
ATOM     25  H   PHE K   1     -19.059   3.403  52.348  0.00  0.00    +0.000 HD
ATOM     26  H   PHE K   2     -17.067   5.513  51.255  0.00  0.00    +0.000 HD
TER 
REMARK  Name = /data/user_data/xianyang/t3-aimnet-affinity-balanced/L2/P18825/pocket.pdb
REMARK                            x       y       z     vdW  Elec       q    Type
REMARK                         _______ _______ _______ _____ _____    ______ ____
ATOM      1  N   TYR L   1     -18.399   7.086  56.556  0.00  0.00    +0.000 N 
ATOM      2  CA  TYR L   1     -17.444   7.976  57.207  0.00  0.00    +0.000 C 
ATOM      3  C   TYR L   1     -18.071   9.380  57.398  0.00  0.00    +0.000 C 
ATOM      4  O   TYR L   1     -17.994   9.924  58.510  0.00  0.00    +0.000 OA
ATOM      5  CB  TYR L   1     -16.158   8.046  56.358  0.00  0.00    +0.000 C 
ATOM      6  CG  TYR L   1     -14.947   8.691  57.001  0.00  0.00    +0.000 A 
ATOM      7  CD2 TYR L   1     -14.641   8.466  58.341  0.00  0.00    +0.000 A 
ATOM      8  CD1 TYR L   1     -14.029   9.408  56.236  0.00  0.00    +0.000 A 
ATOM      9  CE2 TYR L   1     -13.497   9.005  58.923  0.00  0.00    +0.000 A 
ATOM     10  CE1 TYR L   1     -12.893   9.973  56.812  0.00  0.00    +0.000 A 
ATOM     11  CZ  TYR L   1     -12.618   9.751  58.154  0.00  0.00    +0.000 A 
ATOM     12  OH  TYR L   1     -11.487  10.275  58.742  0.00  0.00    +0.000 OA
ATOM     13  H   TYR L   1     -17.977   6.165  56.435  0.00  0.00    +0.000 HD
ATOM     14  H   TYR L   1     -18.652   7.467  55.644  0.00  0.00    +0.000 HD
ATOM     15  H   TYR L   1     -19.235   7.004  57.134  0.00  0.00    +0.000 HD
ATOM     16  H   TYR L   1     -10.885  10.781  58.232  0.00  0.00    +0.000 HD
TER 
REMARK  Name = /data/user_data/xianyang/t3-aimnet-affinity-balanced/L2/P18825/pocket.pdb
REMARK                            x       y       z     vdW  Elec       q    Type
REMARK                         _______ _______ _______ _____ _____    ______ ____
ATOM      1  N   PHE M   1     -18.401  -1.204  58.598  0.00  0.00    +0.000 N 
ATOM      2  CA  PHE M   1     -17.554  -0.079  58.237  0.00  0.00    +0.000 C 
ATOM      3  C   PHE M   1     -16.168  -0.593  57.738  0.00  0.00    +0.000 C 
ATOM      4  O   PHE M   1     -15.692  -0.131  56.704  0.00  0.00    +0.000 OA
ATOM      5  CB  PHE M   1     -17.407   0.840  59.446  0.00  0.00    +0.000 C 
ATOM      6  CG  PHE M   1     -16.678   2.125  59.162  0.00  0.00    +0.000 A 
ATOM      7  CD1 PHE M   1     -17.336   3.205  58.584  0.00  0.00    +0.000 A 
ATOM      8  CD2 PHE M   1     -15.341   2.277  59.511  0.00  0.00    +0.000 A 
ATOM      9  CE1 PHE M   1     -16.669   4.411  58.360  0.00  0.00    +0.000 A 
ATOM     10  CE2 PHE M   1     -14.665   3.476  59.252  0.00  0.00    +0.000 A 
ATOM     11  CZ  PHE M   1     -15.340   4.541  58.705  0.00  0.00    +0.000 A 
ATOM     12  N   LYS M   2     -15.559  -1.575  58.449  0.00  0.00    +0.000 N 
ATOM     13  CA  LYS M   2     -14.279  -2.229  58.109  0.00  0.00    +0.000 C 
ATOM     14  C   LYS M   2     -14.343  -2.954  56.745  0.00  0.00    +0.000 C 
ATOM     15  O   LYS M   2     -13.360  -2.936  56.017  0.00  0.00    +0.000 OA
ATOM     16  CB  LYS M   2     -13.872  -3.248  59.194  0.00  0.00    +0.000 C 
ATOM     17  CG  LYS M   2     -13.512  -2.646  60.547  0.00  0.00    +0.000 C 
ATOM     18  CD  LYS M   2     -13.610  -3.721  61.613  0.00  0.00    +0.000 C 
ATOM     19  CE  LYS M   2     -13.148  -3.275  62.981  0.00  0.00    +0.000 C 
ATOM     20  NZ  LYS M   2     -13.192  -4.396  63.963  0.00  0.00    +0.000 N 
ATOM     21  H   PHE M   1     -18.504  -1.824  57.794  0.00  0.00    +0.000 HD
ATOM     22  H   PHE M   1     -19.318  -0.861  58.883  0.00  0.00    +0.000 HD
ATOM     23  H   PHE M   1     -17.975  -1.717  59.370  0.00  0.00    +0.000 HD
ATOM     24  H   LYS M   2     -16.012  -1.880  59.268  0.00  0.00    +0.000 HD
ATOM     25  H   LYS M   2     -14.151  -4.732  64.053  0.00  0.00    +0.000 HD
ATOM     26  H   LYS M   2     -12.860  -4.067  64.870  0.00  0.00    +0.000 HD
ATOM     27  H   LYS M   2     -12.595  -5.156  63.638  0.00  0.00    +0.000 HD
TER 
REMARK  Name = /data/user_data/xianyang/t3-aimnet-affinity-balanced/L2/P18825/pocket.pdb
REMARK                            x       y       z     vdW  Elec       q    Type
REMARK                         _______ _______ _______ _____ _____    ______ ____
ATOM      1  N   PHE N   1     -14.245  -0.414  53.614  0.00  0.00    +0.000 N 
ATOM      2  CA  PHE N   1     -12.996   0.070  53.040  0.00  0.00    +0.000 C 
ATOM      3  C   PHE N   1     -12.223  -1.050  52.382  0.00  0.00    +0.000 C 
ATOM      4  O   PHE N   1     -11.423  -0.763  51.492  0.00  0.00    +0.000 OA
ATOM      5  CB  PHE N   1     -12.131   0.927  53.973  0.00  0.00    +0.000 C 
ATOM      6  CG  PHE N   1     -11.731   0.434  55.330  0.00  0.00    +0.000 A 
ATOM      7  CD1 PHE N   1     -10.690  -0.478  55.477  0.00  0.00    +0.000 A 
ATOM      8  CD2 PHE N   1     -12.301   0.980  56.478  0.00  0.00    +0.000 A 
ATOM      9  CE1 PHE N   1     -10.288  -0.905  56.747  0.00  0.00    +0.000 A 
ATOM     10  CE2 PHE N   1     -11.896   0.558  57.752  0.00  0.00    +0.000 A 
ATOM     11  CZ  PHE N   1     -10.894  -0.384  57.875  0.00  0.00    +0.000 A 
ATOM     12  H   PHE N   1     -14.745  -0.970  52.920  0.00  0.00    +0.000 HD
ATOM     13  H   PHE N   1     -14.821   0.380  53.893  0.00  0.00    +0.000 HD
ATOM     14  H   PHE N   1     -14.043  -0.991  54.431  0.00  0.00    +0.000 HD
TER 
REMARK  Name = /data/user_data/xianyang/t3-aimnet-affinity-balanced/L2/P18825/pocket.pdb
REMARK                            x       y       z     vdW  Elec       q    Type
REMARK                         _______ _______ _______ _____ _____    ______ ____
ATOM      1  N   TYR O   1     -10.415  -1.264  48.845  0.00  0.00    +0.000 N 
ATOM      2  CA  TYR O   1      -9.119  -1.882  48.532  0.00  0.00    +0.000 C 
ATOM      3  C   TYR O   1      -9.240  -2.913  47.403  0.00  0.00    +0.000 C 
ATOM      4  O   TYR O   1      -8.258  -3.124  46.691  0.00  0.00    +0.000 OA
ATOM      5  CB  TYR O   1      -8.495  -2.568  49.766  0.00  0.00    +0.000 C 
ATOM      6  CG  TYR O   1      -7.963  -1.667  50.864  0.00  0.00    +0.000 A 
ATOM      7  CD1 TYR O   1      -7.507  -0.380  50.581  0.00  0.00    +0.000 A 
ATOM      8  CD2 TYR O   1      -7.835  -2.130  52.171  0.00  0.00    +0.000 A 
ATOM      9  CE1 TYR O   1      -6.991   0.440  51.588  0.00  0.00    +0.000 A 
ATOM     10  CE2 TYR O   1      -7.315  -1.322  53.183  0.00  0.00    +0.000 A 
ATOM     11  CZ  TYR O   1      -6.892  -0.039  52.887  0.00  0.00    +0.000 A 
ATOM     12  OH  TYR O   1      -6.349   0.740  53.871  0.00  0.00    +0.000 OA
ATOM     13  H   TYR O   1     -10.793  -0.823  48.006  0.00  0.00    +0.000 HD
ATOM     14  H   TYR O   1     -10.289  -0.560  49.572  0.00  0.00    +0.000 HD
ATOM     15  H   TYR O   1     -11.063  -1.980  49.174  0.00  0.00    +0.000 HD
ATOM     16  H   TYR O   1      -6.061   1.610  53.675  0.00  0.00    +0.000 HD
TER 
