REMARK  Name = /home/xianyang/aimnet2_score_pipelines/work/L1234-fixed-receptor-eint-20260921/L3/P40879/prepared.pdb
REMARK                            x       y       z     vdW  Elec       q    Type
REMARK                         _______ _______ _______ _____ _____    ______ ____
ATOM      1  CH3 ACE A   1     134.717  83.683 113.542  0.00  0.00    +0.000 C 
ATOM      2  C   ACE A   1     133.292  83.388 113.093  0.00  0.00    +0.000 C 
ATOM      3  O   ACE A   1     132.793  83.993 112.132  0.00  0.00    +0.000 OA
ATOM      4  N   LEU A   2     132.597  82.486 113.794  0.00  0.00    +0.000 N 
ATOM      5  H   LEU A   2     133.050  81.949 114.516  0.00  0.00    +0.000 HD
ATOM      6  CA  LEU A   2     131.203  82.224 113.441  0.00  0.00    +0.000 C 
ATOM      7  C   LEU A   2     130.350  83.481 113.600  0.00  0.00    +0.000 C 
ATOM      8  O   LEU A   2     129.552  83.826 112.716  0.00  0.00    +0.000 OA
ATOM      9  CB  LEU A   2     130.652  81.083 114.294  0.00  0.00    +0.000 C 
ATOM     10  CG  LEU A   2     130.651  79.712 113.619  0.00  0.00    +0.000 C 
ATOM     11  CD1 LEU A   2     129.926  79.783 112.292  0.00  0.00    +0.000 C 
ATOM     12  CD2 LEU A   2     132.070  79.210 113.426  0.00  0.00    +0.000 C 
ATOM     13  N   GLN A   3     130.524  84.196 114.714  0.00  0.00    +0.000 N 
ATOM     14  H   GLN A   3     131.171  83.867 115.411  0.00  0.00    +0.000 HD
ATOM     15  CA  GLN A   3     129.736  85.397 114.956  0.00  0.00    +0.000 C 
ATOM     16  C   GLN A   3     130.074  86.495 113.960  0.00  0.00    +0.000 C 
ATOM     17  O   GLN A   3     129.190  87.244 113.541  0.00  0.00    +0.000 OA
ATOM     18  CB  GLN A   3     129.951  85.882 116.387  0.00  0.00    +0.000 C 
ATOM     19  CG  GLN A   3     129.191  85.084 117.426  0.00  0.00    +0.000 C 
ATOM     20  CD  GLN A   3     128.504  85.966 118.441  0.00  0.00    +0.000 C 
ATOM     21  OE1 GLN A   3     129.021  87.018 118.814  0.00  0.00    +0.000 OA
ATOM     22  NE2 GLN A   3     127.330  85.546 118.894  0.00  0.00    +0.000 N 
ATOM     23 HE21 GLN A   3     127.031  84.590 118.755  0.00  0.00    +0.000 HD
ATOM     24 HE22 GLN A   3     126.788  86.170 119.466  0.00  0.00    +0.000 HD
ATOM     25  N   GLY A   4     131.344  86.621 113.578  0.00  0.00    +0.000 N 
ATOM     26  H   GLY A   4     132.027  85.944 113.878  0.00  0.00    +0.000 HD
ATOM     27  CA  GLY A   4     131.707  87.613 112.583  0.00  0.00    +0.000 C 
ATOM     28  C   GLY A   4     131.085  87.321 111.233  0.00  0.00    +0.000 C 
ATOM     29  O   GLY A   4     130.569  88.223 110.567  0.00  0.00    +0.000 OA
ATOM     30  N   LEU A   5     131.116  86.052 110.817  0.00  0.00    +0.000 N 
ATOM     31  H   LEU A   5     131.583  85.339 111.366  0.00  0.00    +0.000 HD
ATOM     32  CA  LEU A   5     130.432  85.674 109.586  0.00  0.00    +0.000 C 
ATOM     33  C   LEU A   5     128.952  86.016 109.661  0.00  0.00    +0.000 C 
ATOM     34  O   LEU A   5     128.375  86.522 108.692  0.00  0.00    +0.000 OA
ATOM     35  CB  LEU A   5     130.620  84.184 109.311  0.00  0.00    +0.000 C 
ATOM     36  CG  LEU A   5     132.024  83.720 108.935  0.00  0.00    +0.000 C 
ATOM     37  CD1 LEU A   5     131.960  82.413 108.168  0.00  0.00    +0.000 C 
ATOM     38  CD2 LEU A   5     132.706  84.782 108.106  0.00  0.00    +0.000 C 
ATOM     39  N   ALA A   6     128.320  85.748 110.804  0.00  0.00    +0.000 N 
ATOM     40  H   ALA A   6     128.812  85.275 111.552  0.00  0.00    +0.000 HD
ATOM     41  CA  ALA A   6     126.900  86.054 110.939  0.00  0.00    +0.000 C 
ATOM     42  C   ALA A   6     126.642  87.557 110.881  0.00  0.00    +0.000 C 
ATOM     43  O   ALA A   6     125.726  88.015 110.189  0.00  0.00    +0.000 OA
ATOM     44  CB  ALA A   6     126.360  85.466 112.242  0.00  0.00    +0.000 C 
ATOM     45  N   PHE A   7     127.447  88.343 111.598  0.00  0.00    +0.000 N 
ATOM     46  H   PHE A   7     128.175  87.918 112.162  0.00  0.00    +0.000 HD
ATOM     47  CA  PHE A   7     127.150  89.757 111.790  0.00  0.00    +0.000 C 
ATOM     48  C   PHE A   7     127.510  90.597 110.576  0.00  0.00    +0.000 C 
ATOM     49  O   PHE A   7     126.861  91.618 110.328  0.00  0.00    +0.000 OA
ATOM     50  CB  PHE A   7     127.882  90.289 113.021  0.00  0.00    +0.000 C 
ATOM     51  CG  PHE A   7     127.502  89.596 114.292  0.00  0.00    +0.000 A 
ATOM     52  CD1 PHE A   7     126.254  89.018 114.435  0.00  0.00    +0.000 A 
ATOM     53  CD2 PHE A   7     128.396  89.514 115.343  0.00  0.00    +0.000 A 
ATOM     54  CE1 PHE A   7     125.906  88.371 115.602  0.00  0.00    +0.000 A 
ATOM     55  CE2 PHE A   7     128.053  88.868 116.511  0.00  0.00    +0.000 A 
ATOM     56  CZ  PHE A   7     126.809  88.294 116.639  0.00  0.00    +0.000 A 
ATOM     57  N   ALA A   8     128.536  90.202 109.816  0.00  0.00    +0.000 N 
ATOM     58  H   ALA A   8     129.066  89.370 110.056  0.00  0.00    +0.000 HD
ATOM     59  CA  ALA A   8     128.899  90.970 108.631  0.00  0.00    +0.000 C 
ATOM     60  C   ALA A   8     127.756  91.020 107.631  0.00  0.00    +0.000 C 
ATOM     61  O   ALA A   8     127.671  91.956 106.829  0.00  0.00    +0.000 OA
ATOM     62  CB  ALA A   8     130.145  90.377 107.980  0.00  0.00    +0.000 C 
ATOM     63  N   NME A   9     126.869  90.026 107.664  0.00  0.00    +0.000 N 
ATOM     64  H   NME A   9     126.968  89.293 108.354  0.00  0.00    +0.000 HD
ATOM     65  C   NME A   9     125.725  90.015 106.766  0.00  0.00    +0.000 C 
TER 
REMARK  Name = /home/xianyang/aimnet2_score_pipelines/work/L1234-fixed-receptor-eint-20260921/L3/P40879/prepared.pdb
REMARK                            x       y       z     vdW  Elec       q    Type
REMARK                         _______ _______ _______ _____ _____    ______ ____
ATOM      1  CH3 ACE B   1     134.643  92.240 118.249  0.00  0.00    +0.000 C 
ATOM      2  C   ACE B   1     133.386  92.988 117.859  0.00  0.00    +0.000 C 
ATOM      3  O   ACE B   1     133.072  94.045 118.408  0.00  0.00    +0.000 OA
ATOM      4  N   PRO B   2     132.647  92.468 116.884  0.00  0.00    +0.000 N 
ATOM      5  CA  PRO B   2     131.350  93.065 116.559  0.00  0.00    +0.000 C 
ATOM      6  C   PRO B   2     130.217  92.385 117.308  0.00  0.00    +0.000 C 
ATOM      7  O   PRO B   2     130.245  91.183 117.581  0.00  0.00    +0.000 OA
ATOM      8  CB  PRO B   2     131.238  92.819 115.051  0.00  0.00    +0.000 C 
ATOM      9  CG  PRO B   2     131.981  91.535 114.839  0.00  0.00    +0.000 C 
ATOM     10  CD  PRO B   2     133.014  91.401 115.939  0.00  0.00    +0.000 C 
ATOM     11  N   PHE B   3     129.207  93.175 117.653  0.00  0.00    +0.000 N 
ATOM     12  H   PHE B   3     129.202  94.148 117.379  0.00  0.00    +0.000 HD
ATOM     13  CA  PHE B   3     127.979  92.595 118.160  0.00  0.00    +0.000 C 
ATOM     14  C   PHE B   3     126.812  93.079 117.306  0.00  0.00    +0.000 C 
ATOM     15  O   PHE B   3     126.847  94.197 116.785  0.00  0.00    +0.000 OA
ATOM     16  CB  PHE B   3     127.754  92.937 119.642  0.00  0.00    +0.000 C 
ATOM     17  CG  PHE B   3     127.515  94.390 119.918  0.00  0.00    +0.000 A 
ATOM     18  CD1 PHE B   3     128.567  95.277 120.005  0.00  0.00    +0.000 A 
ATOM     19  CD2 PHE B   3     126.239  94.858 120.146  0.00  0.00    +0.000 A 
ATOM     20  CE1 PHE B   3     128.342  96.605 120.277  0.00  0.00    +0.000 A 
ATOM     21  CE2 PHE B   3     126.014  96.183 120.422  0.00  0.00    +0.000 A 
ATOM     22  CZ  PHE B   3     127.065  97.057 120.485  0.00  0.00    +0.000 A 
ATOM     23  N   PRO B   4     125.769  92.257 117.142  0.00  0.00    +0.000 N 
ATOM     24  CA  PRO B   4     124.828  92.474 116.028  0.00  0.00    +0.000 C 
ATOM     25  C   PRO B   4     124.159  93.835 116.035  0.00  0.00    +0.000 C 
ATOM     26  O   PRO B   4     123.833  94.355 114.961  0.00  0.00    +0.000 OA
ATOM     27  CB  PRO B   4     123.802  91.345 116.206  0.00  0.00    +0.000 C 
ATOM     28  CG  PRO B   4     124.003  90.832 117.583  0.00  0.00    +0.000 C 
ATOM     29  CD  PRO B   4     125.422  91.071 117.939  0.00  0.00    +0.000 C 
ATOM     30  N   ILE B   5     123.940  94.430 117.208  0.00  0.00    +0.000 N 
ATOM     31  H   ILE B   5     124.214  93.967 118.057  0.00  0.00    +0.000 HD
ATOM     32  CA  ILE B   5     123.348  95.762 117.259  0.00  0.00    +0.000 C 
ATOM     33  C   ILE B   5     124.268  96.783 116.610  0.00  0.00    +0.000 C 
ATOM     34  O   ILE B   5     123.821  97.653 115.852  0.00  0.00    +0.000 OA
ATOM     35  CB  ILE B   5     123.046  96.156 118.712  0.00  0.00    +0.000 C 
ATOM     36  CG1 ILE B   5     121.686  95.649 119.152  0.00  0.00    +0.000 C 
ATOM     37  CG2 ILE B   5     123.114  97.663 118.875  0.00  0.00    +0.000 C 
ATOM     38  CD1 ILE B   5     121.367  96.118 120.510  0.00  0.00    +0.000 C 
ATOM     39  N   LEU B   6     125.562  96.718 116.920  0.00  0.00    +0.000 N 
ATOM     40  H   LEU B   6     125.919  95.944 117.462  0.00  0.00    +0.000 HD
ATOM     41  CA  LEU B   6     126.492  97.683 116.353  0.00  0.00    +0.000 C 
ATOM     42  C   LEU B   6     126.599  97.499 114.849  0.00  0.00    +0.000 C 
ATOM     43  O   LEU B   6     126.718  98.475 114.100  0.00  0.00    +0.000 OA
ATOM     44  CB  LEU B   6     127.856  97.548 117.021  0.00  0.00    +0.000 C 
ATOM     45  CG  LEU B   6     128.632  98.853 117.119  0.00  0.00    +0.000 C 
ATOM     46  CD1 LEU B   6     127.817  99.799 117.954  0.00  0.00    +0.000 C 
ATOM     47  CD2 LEU B   6     129.982  98.617 117.767  0.00  0.00    +0.000 C 
ATOM     48  N   SER B   7     126.546  96.249 114.388  0.00  0.00    +0.000 N 
ATOM     49  H   SER B   7     126.493  95.479 115.041  0.00  0.00    +0.000 HD
ATOM     50  CA  SER B   7     126.523  95.992 112.955  0.00  0.00    +0.000 C 
ATOM     51  C   SER B   7     125.271  96.572 112.311  0.00  0.00    +0.000 C 
ATOM     52  O   SER B   7     125.338  97.140 111.216  0.00  0.00    +0.000 OA
ATOM     53  CB  SER B   7     126.618  94.492 112.689  0.00  0.00    +0.000 C 
ATOM     54  OG  SER B   7     127.947  94.033 112.850  0.00  0.00    +0.000 OA
ATOM     55  HG  SER B   7     128.390  94.153 112.008  0.00  0.00    +0.000 HD
ATOM     56  N   NME B   8     124.119  96.438 112.970  0.00  0.00    +0.000 N 
ATOM     57  H   NME B   8     124.095  95.961 113.864  0.00  0.00    +0.000 HD
ATOM     58  C   NME B   8     122.893  97.005 112.416  0.00  0.00    +0.000 C 
TER 
REMARK  Name = /home/xianyang/aimnet2_score_pipelines/work/L1234-fixed-receptor-eint-20260921/L3/P40879/prepared.pdb
REMARK                            x       y       z     vdW  Elec       q    Type
REMARK                         _______ _______ _______ _____ _____    ______ ____
ATOM      1  CH3 ACE C   1     131.562 109.359 133.070  0.00  0.00    +0.000 C 
ATOM      2  C   ACE C   1     130.204 109.548 132.410  0.00  0.00    +0.000 C 
ATOM      3  O   ACE C   1     129.191 109.562 133.114  0.00  0.00    +0.000 OA
ATOM      4  N   VAL C   2     130.162 109.710 131.086  0.00  0.00    +0.000 N 
ATOM      5  H   VAL C   2     131.026 109.767 130.571  0.00  0.00    +0.000 HD
ATOM      6  CA  VAL C   2     128.892 109.887 130.390  0.00  0.00    +0.000 C 
ATOM      7  C   VAL C   2     128.016 108.651 130.539  0.00  0.00    +0.000 C 
ATOM      8  O   VAL C   2     126.783 108.754 130.571  0.00  0.00    +0.000 OA
ATOM      9  CB  VAL C   2     129.155 110.229 128.911  0.00  0.00    +0.000 C 
ATOM     10  CG1 VAL C   2     130.140 109.245 128.315  0.00  0.00    +0.000 C 
ATOM     11  CG2 VAL C   2     127.861 110.242 128.116  0.00  0.00    +0.000 C 
ATOM     12  N   VAL C   3     128.628 107.474 130.673  0.00  0.00    +0.000 N 
ATOM     13  H   VAL C   3     129.635 107.454 130.683  0.00  0.00    +0.000 HD
ATOM     14  CA  VAL C   3     127.894 106.219 130.736  0.00  0.00    +0.000 C 
ATOM     15  C   VAL C   3     126.900 106.160 131.888  0.00  0.00    +0.000 C 
ATOM     16  O   VAL C   3     126.053 105.265 131.916  0.00  0.00    +0.000 OA
ATOM     17  CB  VAL C   3     128.882 105.037 130.830  0.00  0.00    +0.000 C 
ATOM     18  CG1 VAL C   3     129.291 104.801 132.272  0.00  0.00    +0.000 C 
ATOM     19  CG2 VAL C   3     128.269 103.784 130.232  0.00  0.00    +0.000 C 
ATOM     20  N   ILE C   4     126.973 107.094 132.841  0.00  0.00    +0.000 N 
ATOM     21  H   ILE C   4     127.666 107.829 132.788  0.00  0.00    +0.000 HD
ATOM     22  CA  ILE C   4     126.031 107.084 133.958  0.00  0.00    +0.000 C 
ATOM     23  C   ILE C   4     124.718 107.775 133.637  0.00  0.00    +0.000 C 
ATOM     24  O   ILE C   4     123.790 107.718 134.451  0.00  0.00    +0.000 OA
ATOM     25  CB  ILE C   4     126.638 107.733 135.215  0.00  0.00    +0.000 C 
ATOM     26  CG1 ILE C   4     126.434 109.247 135.194  0.00  0.00    +0.000 C 
ATOM     27  CG2 ILE C   4     128.110 107.388 135.336  0.00  0.00    +0.000 C 
ATOM     28  CD1 ILE C   4     127.131 109.963 136.324  0.00  0.00    +0.000 C 
ATOM     29  N   TYR C   5     124.602 108.419 132.477  0.00  0.00    +0.000 N 
ATOM     30  H   TYR C   5     125.398 108.491 131.851  0.00  0.00    +0.000 HD
ATOM     31  CA  TYR C   5     123.342 109.056 132.117  0.00  0.00    +0.000 C 
ATOM     32  C   TYR C   5     122.300 108.071 131.612  0.00  0.00    +0.000 C 
ATOM     33  O   TYR C   5     121.147 108.465 131.414  0.00  0.00    +0.000 OA
ATOM     34  CB  TYR C   5     123.569 110.135 131.060  0.00  0.00    +0.000 C 
ATOM     35  CG  TYR C   5     124.323 111.329 131.575  0.00  0.00    +0.000 A 
ATOM     36  CD1 TYR C   5     124.407 111.579 132.932  0.00  0.00    +0.000 A 
ATOM     37  CD2 TYR C   5     124.953 112.204 130.708  0.00  0.00    +0.000 A 
ATOM     38  CE1 TYR C   5     125.094 112.665 133.412  0.00  0.00    +0.000 A 
ATOM     39  CE2 TYR C   5     125.644 113.295 131.180  0.00  0.00    +0.000 A 
ATOM     40  CZ  TYR C   5     125.712 113.520 132.533  0.00  0.00    +0.000 A 
ATOM     41  OH  TYR C   5     126.400 114.608 133.011  0.00  0.00    +0.000 OA
ATOM     42  HH  TYR C   5     125.879 115.093 133.651  0.00  0.00    +0.000 HD
ATOM     43  N   LEU C   6     122.670 106.813 131.398  0.00  0.00    +0.000 N 
ATOM     44  H   LEU C   6     123.610 106.532 131.643  0.00  0.00    +0.000 HD
ATOM     45  CA  LEU C   6     121.746 105.790 130.927  0.00  0.00    +0.000 C 
ATOM     46  C   LEU C   6     121.281 104.974 132.126  0.00  0.00    +0.000 C 
ATOM     47  O   LEU C   6     122.060 104.215 132.708  0.00  0.00    +0.000 OA
ATOM     48  CB  LEU C   6     122.409 104.905 129.877  0.00  0.00    +0.000 C 
ATOM     49  CG  LEU C   6     122.914 105.653 128.646  0.00  0.00    +0.000 C 
ATOM     50  CD1 LEU C   6     124.102 104.940 128.033  0.00  0.00    +0.000 C 
ATOM     51  CD2 LEU C   6     121.803 105.802 127.632  0.00  0.00    +0.000 C 
ATOM     52  N   SER C   7     120.009 105.126 132.485  0.00  0.00    +0.000 N 
ATOM     53  H   SER C   7     119.450 105.794 131.981  0.00  0.00    +0.000 HD
ATOM     54  CA  SER C   7     119.453 104.439 133.639  0.00  0.00    +0.000 C 
ATOM     55  C   SER C   7     119.373 102.938 133.382  0.00  0.00    +0.000 C 
ATOM     56  O   SER C   7     119.699 102.440 132.304  0.00  0.00    +0.000 OA
ATOM     57  CB  SER C   7     118.071 104.990 133.968  0.00  0.00    +0.000 C 
ATOM     58  OG  SER C   7     117.297 104.017 134.643  0.00  0.00    +0.000 OA
ATOM     59  HG  SER C   7     116.653 104.473 135.198  0.00  0.00    +0.000 HD
ATOM     60  N   GLU C   8     118.930 102.203 134.401  0.00  0.00    +0.000 N 
ATOM     61  H   GLU C   8     118.610 102.666 135.237  0.00  0.00    +0.000 HD
ATOM     62  CA  GLU C   8     118.698 100.775 134.227  0.00  0.00    +0.000 C 
ATOM     63  C   GLU C   8     117.424 100.515 133.433  0.00  0.00    +0.000 C 
ATOM     64  O   GLU C   8     117.385  99.607 132.595  0.00  0.00    +0.000 OA
ATOM     65  CB  GLU C   8     118.637 100.084 135.588  0.00  0.00    +0.000 C 
ATOM     66  CG  GLU C   8     118.972  98.607 135.545  0.00  0.00    +0.000 C 
ATOM     67  CD  GLU C   8     117.800  97.757 135.105  0.00  0.00    +0.000 C 
ATOM     68  OE1 GLU C   8     116.649  98.230 135.209  0.00  0.00    +0.000 OA
ATOM     69  OE2 GLU C   8     118.027  96.617 134.651  0.00  0.00    +0.000 OA
ATOM     70  N   SER C   9     116.374 101.299 133.685  0.00  0.00    +0.000 N 
ATOM     71  H   SER C   9     116.447 101.999 134.409  0.00  0.00    +0.000 HD
ATOM     72  CA  SER C   9     115.130 101.127 132.943  0.00  0.00    +0.000 C 
ATOM     73  C   SER C   9     115.313 101.463 131.470  0.00  0.00    +0.000 C 
ATOM     74  O   SER C   9     114.790 100.759 130.598  0.00  0.00    +0.000 OA
ATOM     75  CB  SER C   9     114.032 101.987 133.559  0.00  0.00    +0.000 C 
ATOM     76  OG  SER C   9     113.691 101.517 134.849  0.00  0.00    +0.000 OA
ATOM     77  HG  SER C   9     113.936 100.585 134.924  0.00  0.00    +0.000 HD
ATOM     78  N   LEU C  10     116.047 102.536 131.172  0.00  0.00    +0.000 N 
ATOM     79  H   LEU C  10     116.499 103.045 131.916  0.00  0.00    +0.000 HD
ATOM     80  CA  LEU C  10     116.321 102.870 129.779  0.00  0.00    +0.000 C 
ATOM     81  C   LEU C  10     117.122 101.769 129.104  0.00  0.00    +0.000 C 
ATOM     82  O   LEU C  10     116.866 101.428 127.946  0.00  0.00    +0.000 OA
ATOM     83  CB  LEU C  10     117.062 104.202 129.690  0.00  0.00    +0.000 C 
ATOM     84  CG  LEU C  10     117.070 104.892 128.327  0.00  0.00    +0.000 C 
ATOM     85  CD1 LEU C  10     117.060 106.394 128.508  0.00  0.00    +0.000 C 
ATOM     86  CD2 LEU C  10     118.276 104.472 127.513  0.00  0.00    +0.000 C 
ATOM     87  N   ILE C  11     118.098 101.203 129.814  0.00  0.00    +0.000 N 
ATOM     88  H   ILE C  11     118.308 101.527 130.751  0.00  0.00    +0.000 HD
ATOM     89  CA  ILE C  11     118.892 100.117 129.252  0.00  0.00    +0.000 C 
ATOM     90  C   ILE C  11     118.006  98.919 128.945  0.00  0.00    +0.000 C 
ATOM     91  O   ILE C  11     118.118  98.302 127.879  0.00  0.00    +0.000 OA
ATOM     92  CB  ILE C  11     120.037  99.749 130.211  0.00  0.00    +0.000 C 
ATOM     93  CG1 ILE C  11     121.220 100.692 130.005  0.00  0.00    +0.000 C 
ATOM     94  CG2 ILE C  11     120.468  98.310 130.009  0.00  0.00    +0.000 C 
ATOM     95  CD1 ILE C  11     122.218 100.676 131.141  0.00  0.00    +0.000 C 
ATOM     96  N   SER C  12     117.104  98.576 129.866  0.00  0.00    +0.000 N 
ATOM     97  H   SER C  12     117.107  99.040 130.772  0.00  0.00    +0.000 HD
ATOM     98  CA  SER C  12     116.216  97.439 129.644  0.00  0.00    +0.000 C 
ATOM     99  C   SER C  12     115.300  97.679 128.448  0.00  0.00    +0.000 C 
ATOM    100  O   SER C  12     115.117  96.794 127.600  0.00  0.00    +0.000 OA
ATOM    101  CB  SER C  12     115.395  97.164 130.901  0.00  0.00    +0.000 C 
ATOM    102  OG  SER C  12     114.490  96.098 130.685  0.00  0.00    +0.000 OA
ATOM    103  HG  SER C  12     114.406  95.616 131.514  0.00  0.00    +0.000 HD
ATOM    104  N   GLY C  13     114.714  98.872 128.364  0.00  0.00    +0.000 N 
ATOM    105  H   GLY C  13     114.845  99.552 129.107  0.00  0.00    +0.000 HD
ATOM    106  CA  GLY C  13     113.848  99.173 127.237  0.00  0.00    +0.000 C 
ATOM    107  C   GLY C  13     114.590  99.141 125.916  0.00  0.00    +0.000 C 
ATOM    108  O   GLY C  13     114.085  98.616 124.918  0.00  0.00    +0.000 OA
ATOM    109  N   PHE C  14     115.804  99.693 125.897  0.00  0.00    +0.000 N 
ATOM    110  H   PHE C  14     116.169 100.146 126.730  0.00  0.00    +0.000 HD
ATOM    111  CA  PHE C  14     116.609  99.673 124.685  0.00  0.00    +0.000 C 
ATOM    112  C   PHE C  14     116.938  98.249 124.276  0.00  0.00    +0.000 C 
ATOM    113  O   PHE C  14     116.866  97.907 123.093  0.00  0.00    +0.000 OA
ATOM    114  CB  PHE C  14     117.889 100.473 124.898  0.00  0.00    +0.000 C 
ATOM    115  CG  PHE C  14     118.658 100.730 123.642  0.00  0.00    +0.000 A 
ATOM    116  CD1 PHE C  14     118.410 101.858 122.889  0.00  0.00    +0.000 A 
ATOM    117  CD2 PHE C  14     119.630  99.846 123.215  0.00  0.00    +0.000 A 
ATOM    118  CE1 PHE C  14     119.117 102.102 121.735  0.00  0.00    +0.000 A 
ATOM    119  CE2 PHE C  14     120.342 100.086 122.061  0.00  0.00    +0.000 A 
ATOM    120  CZ  PHE C  14     120.084 101.215 121.320  0.00  0.00    +0.000 A 
ATOM    121  N   THR C  15     117.290  97.399 125.242  0.00  0.00    +0.000 N 
ATOM    122  H   THR C  15     117.350  97.725 126.199  0.00  0.00    +0.000 HD
ATOM    123  CA  THR C  15     117.598  96.012 124.915  0.00  0.00    +0.000 C 
ATOM    124  C   THR C  15     116.383  95.294 124.346  0.00  0.00    +0.000 C 
ATOM    125  O   THR C  15     116.508  94.511 123.402  0.00  0.00    +0.000 OA
ATOM    126  CB  THR C  15     118.112  95.270 126.146  0.00  0.00    +0.000 C 
ATOM    127  OG1 THR C  15     117.291  95.585 127.275  0.00  0.00    +0.000 OA
ATOM    128  HG1 THR C  15     117.490  96.490 127.548  0.00  0.00    +0.000 HD
ATOM    129  CG2 THR C  15     119.543  95.658 126.441  0.00  0.00    +0.000 C 
ATOM    130  N   THR C  16     115.200  95.531 124.913  0.00  0.00    +0.000 N 
ATOM    131  H   THR C  16     115.160  96.089 125.762  0.00  0.00    +0.000 HD
ATOM    132  CA  THR C  16     114.001  94.881 124.387  0.00  0.00    +0.000 C 
ATOM    133  C   THR C  16     113.702  95.335 122.960  0.00  0.00    +0.000 C 
ATOM    134  O   THR C  16     113.487  94.511 122.053  0.00  0.00    +0.000 OA
ATOM    135  CB  THR C  16     112.813  95.172 125.296  0.00  0.00    +0.000 C 
ATOM    136  OG1 THR C  16     112.882  94.343 126.464  0.00  0.00    +0.000 OA
ATOM    137  HG1 THR C  16     113.673  94.583 126.962  0.00  0.00    +0.000 HD
ATOM    138  CG2 THR C  16     111.525  94.914 124.561  0.00  0.00    +0.000 C 
ATOM    139  N   ALA C  17     113.694  96.651 122.739  0.00  0.00    +0.000 N 
ATOM    140  H   ALA C  17     113.886  97.299 123.497  0.00  0.00    +0.000 HD
ATOM    141  CA  ALA C  17     113.440  97.162 121.399  0.00  0.00    +0.000 C 
ATOM    142  C   ALA C  17     114.483  96.650 120.417  0.00  0.00    +0.000 C 
ATOM    143  O   ALA C  17     114.167  96.327 119.270  0.00  0.00    +0.000 OA
ATOM    144  CB  ALA C  17     113.432  98.686 121.416  0.00  0.00    +0.000 C 
ATOM    145  N   ALA C  18     115.732  96.549 120.856  0.00  0.00    +0.000 N 
ATOM    146  H   ALA C  18     115.972  96.871 121.786  0.00  0.00    +0.000 HD
ATOM    147  CA  ALA C  18     116.794  96.087 119.979  0.00  0.00    +0.000 C 
ATOM    148  C   ALA C  18     116.692  94.595 119.696  0.00  0.00    +0.000 C 
ATOM    149  O   ALA C  18     117.090  94.134 118.622  0.00  0.00    +0.000 OA
ATOM    150  CB  ALA C  18     118.130  96.429 120.607  0.00  0.00    +0.000 C 
ATOM    151  N   ALA C  19     116.211  93.814 120.660  0.00  0.00    +0.000 N 
ATOM    152  H   ALA C  19     115.998  94.197 121.574  0.00  0.00    +0.000 HD
ATOM    153  CA  ALA C  19     115.916  92.415 120.381  0.00  0.00    +0.000 C 
ATOM    154  C   ALA C  19     114.881  92.305 119.276  0.00  0.00    +0.000 C 
ATOM    155  O   ALA C  19     115.026  91.504 118.346  0.00  0.00    +0.000 OA
ATOM    156  CB  ALA C  19     115.412  91.718 121.640  0.00  0.00    +0.000 C 
ATOM    157  N   NME C  20     113.829  93.120 119.358  0.00  0.00    +0.000 N 
ATOM    158  H   NME C  20     113.757  93.772 120.132  0.00  0.00    +0.000 HD
ATOM    159  C   NME C  20     112.820  93.099 118.300  0.00  0.00    +0.000 C 
TER 
REMARK  Name = /home/xianyang/aimnet2_score_pipelines/work/L1234-fixed-receptor-eint-20260921/L3/P40879/prepared.pdb
REMARK                            x       y       z     vdW  Elec       q    Type
REMARK                         _______ _______ _______ _____ _____    ______ ____
ATOM      1  CH3 ACE D   1     130.209 105.486 119.358  0.00  0.00    +0.000 C 
ATOM      2  C   ACE D   1     129.695 105.400 120.787  0.00  0.00    +0.000 C 
ATOM      3  O   ACE D   1     130.229 104.633 121.600  0.00  0.00    +0.000 OA
ATOM      4  N   MET D   2     128.647 106.163 121.108  0.00  0.00    +0.000 N 
ATOM      5  H   MET D   2     128.309 106.851 120.454  0.00  0.00    +0.000 HD
ATOM      6  CA  MET D   2     128.117 106.124 122.466  0.00  0.00    +0.000 C 
ATOM      7  C   MET D   2     127.506 104.766 122.786  0.00  0.00    +0.000 C 
ATOM      8  O   MET D   2     127.697 104.242 123.890  0.00  0.00    +0.000 OA
ATOM      9  CB  MET D   2     127.094 107.239 122.669  0.00  0.00    +0.000 C 
ATOM     10  CG  MET D   2     127.716 108.616 122.842  0.00  0.00    +0.000 C 
ATOM     11  SD  MET D   2     129.492 108.575 123.157  0.00  0.00    +0.000 S 
ATOM     12  CE  MET D   2     129.546 108.171 124.902  0.00  0.00    +0.000 C 
ATOM     13  N   VAL D   3     126.777 104.176 121.836  0.00  0.00    +0.000 N 
ATOM     14  H   VAL D   3     126.625 104.651 120.960  0.00  0.00    +0.000 HD
ATOM     15  CA  VAL D   3     126.190 102.859 122.072  0.00  0.00    +0.000 C 
ATOM     16  C   VAL D   3     127.281 101.821 122.287  0.00  0.00    +0.000 C 
ATOM     17  O   VAL D   3     127.191 100.984 123.193  0.00  0.00    +0.000 OA
ATOM     18  CB  VAL D   3     125.260 102.469 120.910  0.00  0.00    +0.000 C 
ATOM     19  CG1 VAL D   3     125.052 100.968 120.882  0.00  0.00    +0.000 C 
ATOM     20  CG2 VAL D   3     123.934 103.184 121.040  0.00  0.00    +0.000 C 
ATOM     21  N   ALA D   4     128.331 101.861 121.464  0.00  0.00    +0.000 N 
ATOM     22  H   ALA D   4     128.395 102.585 120.769  0.00  0.00    +0.000 HD
ATOM     23  CA  ALA D   4     129.422 100.902 121.598  0.00  0.00    +0.000 C 
ATOM     24  C   ALA D   4     130.108 101.035 122.950  0.00  0.00    +0.000 C 
ATOM     25  O   ALA D   4     130.356 100.034 123.636  0.00  0.00    +0.000 OA
ATOM     26  CB  ALA D   4     130.425 101.099 120.465  0.00  0.00    +0.000 C 
ATOM     27  N   PHE D   5     130.420 102.269 123.354  0.00  0.00    +0.000 N 
ATOM     28  H   PHE D   5     130.244 103.070 122.756  0.00  0.00    +0.000 HD
ATOM     29  CA  PHE D   5     131.087 102.464 124.636  0.00  0.00    +0.000 C 
ATOM     30  C   PHE D   5     130.206 102.013 125.793  0.00  0.00    +0.000 C 
ATOM     31  O   PHE D   5     130.686 101.359 126.726  0.00  0.00    +0.000 OA
ATOM     32  CB  PHE D   5     131.484 103.926 124.813  0.00  0.00    +0.000 C 
ATOM     33  CG  PHE D   5     132.091 104.224 126.149  0.00  0.00    +0.000 A 
ATOM     34  CD1 PHE D   5     133.019 103.365 126.707  0.00  0.00    +0.000 A 
ATOM     35  CD2 PHE D   5     131.732 105.357 126.849  0.00  0.00    +0.000 A 
ATOM     36  CE1 PHE D   5     133.576 103.632 127.936  0.00  0.00    +0.000 A 
ATOM     37  CE2 PHE D   5     132.288 105.629 128.079  0.00  0.00    +0.000 A 
ATOM     38  CZ  PHE D   5     133.211 104.766 128.622  0.00  0.00    +0.000 A 
ATOM     39  N   ALA D   6     128.915 102.354 125.754  0.00  0.00    +0.000 N 
ATOM     40  H   ALA D   6     128.557 102.920 124.992  0.00  0.00    +0.000 HD
ATOM     41  CA  ALA D   6     128.021 101.949 126.831  0.00  0.00    +0.000 C 
ATOM     42  C   ALA D   6     127.912 100.434 126.913  0.00  0.00    +0.000 C 
ATOM     43  O   ALA D   6     127.944  99.861 128.008  0.00  0.00    +0.000 OA
ATOM     44  CB  ALA D   6     126.644 102.579 126.637  0.00  0.00    +0.000 C 
ATOM     45  N   VAL D   7     127.796  99.765 125.763  0.00  0.00    +0.000 N 
ATOM     46  H   VAL D   7     127.742 100.277 124.887  0.00  0.00    +0.000 HD
ATOM     47  CA  VAL D   7     127.682  98.310 125.758  0.00  0.00    +0.000 C 
ATOM     48  C   VAL D   7     128.942  97.685 126.338  0.00  0.00    +0.000 C 
ATOM     49  O   VAL D   7     128.879  96.775 127.174  0.00  0.00    +0.000 OA
ATOM     50  CB  VAL D   7     127.410  97.798 124.332  0.00  0.00    +0.000 C 
ATOM     51  CG1 VAL D   7     127.940  96.384 124.159  0.00  0.00    +0.000 C 
ATOM     52  CG2 VAL D   7     125.933  97.867 124.009  0.00  0.00    +0.000 C 
ATOM     53  N   ALA D   8     130.108  98.172 125.908  0.00  0.00    +0.000 N 
ATOM     54  H   ALA D   8     130.128  98.908 125.209  0.00  0.00    +0.000 HD
ATOM     55  CA  ALA D   8     131.357  97.598 126.391  0.00  0.00    +0.000 C 
ATOM     56  C   ALA D   8     131.520  97.807 127.888  0.00  0.00    +0.000 C 
ATOM     57  O   ALA D   8     131.923  96.887 128.609  0.00  0.00    +0.000 OA
ATOM     58  CB  ALA D   8     132.541  98.195 125.638  0.00  0.00    +0.000 C 
ATOM     59  N   PHE D   9     131.213  99.009 128.377  0.00  0.00    +0.000 N 
ATOM     60  H   PHE D   9     130.912  99.756 127.758  0.00  0.00    +0.000 HD
ATOM     61  CA  PHE D   9     131.356  99.262 129.805  0.00  0.00    +0.000 C 
ATOM     62  C   PHE D   9     130.382  98.420 130.616  0.00  0.00    +0.000 C 
ATOM     63  O   PHE D   9     130.752  97.879 131.663  0.00  0.00    +0.000 OA
ATOM     64  CB  PHE D   9     131.163 100.744 130.108  0.00  0.00    +0.000 C 
ATOM     65  CG  PHE D   9     131.670 101.147 131.457  0.00  0.00    +0.000 A 
ATOM     66  CD1 PHE D   9     133.006 101.445 131.646  0.00  0.00    +0.000 A 
ATOM     67  CD2 PHE D   9     130.815 101.216 132.540  0.00  0.00    +0.000 A 
ATOM     68  CE1 PHE D   9     133.478 101.811 132.887  0.00  0.00    +0.000 A 
ATOM     69  CE2 PHE D   9     131.282 101.582 133.784  0.00  0.00    +0.000 A 
ATOM     70  CZ  PHE D   9     132.615 101.879 133.958  0.00  0.00    +0.000 A 
ATOM     71  N   SER D  10     129.137  98.290 130.153  0.00  0.00    +0.000 N 
ATOM     72  H   SER D  10     128.861  98.764 129.298  0.00  0.00    +0.000 HD
ATOM     73  CA  SER D  10     128.167  97.488 130.890  0.00  0.00    +0.000 C 
ATOM     74  C   SER D  10     128.563  96.019 130.909  0.00  0.00    +0.000 C 
ATOM     75  O   SER D  10     128.358  95.331 131.915  0.00  0.00    +0.000 OA
ATOM     76  CB  SER D  10     126.774  97.661 130.291  0.00  0.00    +0.000 C 
ATOM     77  OG  SER D  10     126.055  98.674 130.970  0.00  0.00    +0.000 OA
ATOM     78  HG  SER D  10     126.388  99.527 130.672  0.00  0.00    +0.000 HD
ATOM     79  N   VAL D  11     129.123  95.514 129.808  0.00  0.00    +0.000 N 
ATOM     80  H   VAL D  11     129.226  96.090 128.978  0.00  0.00    +0.000 HD
ATOM     81  CA  VAL D  11     129.539  94.116 129.778  0.00  0.00    +0.000 C 
ATOM     82  C   VAL D  11     130.749  93.895 130.676  0.00  0.00    +0.000 C 
ATOM     83  O   VAL D  11     130.830  92.891 131.392  0.00  0.00    +0.000 OA
ATOM     84  CB  VAL D  11     129.817  93.671 128.332  0.00  0.00    +0.000 C 
ATOM     85  CG1 VAL D  11     130.578  92.362 128.321  0.00  0.00    +0.000 C 
ATOM     86  CG2 VAL D  11     128.515  93.531 127.570  0.00  0.00    +0.000 C 
ATOM     87  N   ALA D  12     131.705  94.825 130.661  0.00  0.00    +0.000 N 
ATOM     88  H   ALA D  12     131.620  95.633 130.056  0.00  0.00    +0.000 HD
ATOM     89  CA  ALA D  12     132.918  94.648 131.451  0.00  0.00    +0.000 C 
ATOM     90  C   ALA D  12     132.688  94.886 132.937  0.00  0.00    +0.000 C 
ATOM     91  O   ALA D  12     133.421  94.331 133.765  0.00  0.00    +0.000 OA
ATOM     92  CB  ALA D  12     134.017  95.580 130.942  0.00  0.00    +0.000 C 
ATOM     93  N   NME D  13     131.697  95.706 133.292  0.00  0.00    +0.000 N 
ATOM     94  H   NME D  13     131.152  96.177 132.578  0.00  0.00    +0.000 HD
ATOM     95  C   NME D  13     131.484  96.042 134.695  0.00  0.00    +0.000 C 
TER 
REMARK  Name = /home/xianyang/aimnet2_score_pipelines/work/L1234-fixed-receptor-eint-20260921/L3/P40879/prepared.pdb
REMARK                            x       y       z     vdW  Elec       q    Type
REMARK                         _______ _______ _______ _____ _____    ______ ____
ATOM      1  CH3 ACE E   1     132.953  96.251 120.966  0.00  0.00    +0.000 C 
ATOM      2  C   ACE E   1     133.093  94.843 121.536  0.00  0.00    +0.000 C 
ATOM      3  O   ACE E   1     133.684  93.965 120.899  0.00  0.00    +0.000 OA
ATOM      4  N   THR E   2     132.594  94.631 122.745  0.00  0.00    +0.000 N 
ATOM      5  H   THR E   2     132.092  95.375 123.204  0.00  0.00    +0.000 HD
ATOM      6  CA  THR E   2     132.483  93.290 123.298  0.00  0.00    +0.000 C 
ATOM      7  C   THR E   2     131.021  92.867 123.285  0.00  0.00    +0.000 C 
ATOM      8  O   THR E   2     130.146  93.629 123.707  0.00  0.00    +0.000 OA
ATOM      9  CB  THR E   2     133.053  93.218 124.715  0.00  0.00    +0.000 C 
ATOM     10  OG1 THR E   2     132.628  92.002 125.341  0.00  0.00    +0.000 OA
ATOM     11  HG1 THR E   2     132.635  92.133 126.294  0.00  0.00    +0.000 HD
ATOM     12  CG2 THR E   2     132.595  94.400 125.540  0.00  0.00    +0.000 C 
ATOM     13  N   ALA E   3     130.762  91.665 122.788  0.00  0.00    +0.000 N 
ATOM     14  H   ALA E   3     131.537  91.049 122.613  0.00  0.00    +0.000 HD
ATOM     15  CA  ALA E   3     129.417  91.117 122.722  0.00  0.00    +0.000 C 
ATOM     16  C   ALA E   3     129.145  90.284 123.965  0.00  0.00    +0.000 C 
ATOM     17  O   ALA E   3     130.021  89.554 124.436  0.00  0.00    +0.000 OA
ATOM     18  CB  ALA E   3     129.237  90.260 121.470  0.00  0.00    +0.000 C 
ATOM     19  N   LEU E   4     127.926  90.400 124.498  0.00  0.00    +0.000 N 
ATOM     20  H   LEU E   4     127.281  91.082 124.131  0.00  0.00    +0.000 HD
ATOM     21  CA  LEU E   4     127.600  89.689 125.729  0.00  0.00    +0.000 C 
ATOM     22  C   LEU E   4     127.690  88.182 125.533  0.00  0.00    +0.000 C 
ATOM     23  O   LEU E   4     128.221  87.471 126.392  0.00  0.00    +0.000 OA
ATOM     24  CB  LEU E   4     126.209  90.086 126.223  0.00  0.00    +0.000 C 
ATOM     25  CG  LEU E   4     126.009  90.159 127.743  0.00  0.00    +0.000 C 
ATOM     26  CD1 LEU E   4     124.627  90.680 128.073  0.00  0.00    +0.000 C 
ATOM     27  CD2 LEU E   4     126.231  88.823 128.437  0.00  0.00    +0.000 C 
ATOM     28  N   SER E   5     127.185  87.674 124.408  0.00  0.00    +0.000 N 
ATOM     29  H   SER E   5     126.741  88.274 123.730  0.00  0.00    +0.000 HD
ATOM     30  CA  SER E   5     127.216  86.234 124.172  0.00  0.00    +0.000 C 
ATOM     31  C   SER E   5     128.647  85.721 124.075  0.00  0.00    +0.000 C 
ATOM     32  O   SER E   5     129.019  84.746 124.740  0.00  0.00    +0.000 OA
ATOM     33  CB  SER E   5     126.436  85.898 122.902  0.00  0.00    +0.000 C 
ATOM     34  OG  SER E   5     126.725  86.825 121.871  0.00  0.00    +0.000 OA
ATOM     35  HG  SER E   5     127.530  86.551 121.424  0.00  0.00    +0.000 HD
ATOM     36  N   ARG E   6     129.468  86.371 123.248  0.00  0.00    +0.000 N 
ATOM     37  H   ARG E   6     129.154  87.233 122.830  0.00  0.00    +0.000 HD
ATOM     38  CA  ARG E   6     130.845  85.923 123.075  0.00  0.00    +0.000 C 
ATOM     39  C   ARG E   6     131.641  86.065 124.365  0.00  0.00    +0.000 C 
ATOM     40  O   ARG E   6     132.415  85.171 124.727  0.00  0.00    +0.000 OA
ATOM     41  CB  ARG E   6     131.513  86.704 121.946  0.00  0.00    +0.000 C 
ATOM     42  CG  ARG E   6     132.763  86.042 121.410  0.00  0.00    +0.000 C 
ATOM     43  CD  ARG E   6     133.473  86.930 120.412  0.00  0.00    +0.000 C 
ATOM     44  NE  ARG E   6     132.538  87.730 119.633  0.00  0.00    +0.000 N 
ATOM     45  HE  ARG E   6     131.732  87.278 119.229  0.00  0.00    +0.000 HD
ATOM     46  CZ  ARG E   6     132.644  89.040 119.466  0.00  0.00    +0.000 C 
ATOM     47  NH1 ARG E   6     133.626  89.729 120.021  0.00  0.00    +0.000 N 
ATOM     48 HH11 ARG E   6     133.667  90.729 119.899  0.00  0.00    +0.000 HD
ATOM     49 HH12 ARG E   6     134.311  89.253 120.577  0.00  0.00    +0.000 HD
ATOM     50  NH2 ARG E   6     131.741  89.675 118.724  0.00  0.00    +0.000 N 
ATOM     51 HH21 ARG E   6     130.960  89.188 118.316  0.00  0.00    +0.000 HD
ATOM     52 HH22 ARG E   6     131.736  90.673 118.582  0.00  0.00    +0.000 HD
ATOM     53  N   SER E   7     131.474  87.187 125.066  0.00  0.00    +0.000 N 
ATOM     54  H   SER E   7     130.852  87.924 124.754  0.00  0.00    +0.000 HD
ATOM     55  CA  SER E   7     132.196  87.382 126.318  0.00  0.00    +0.000 C 
ATOM     56  C   SER E   7     131.781  86.350 127.355  0.00  0.00    +0.000 C 
ATOM     57  O   SER E   7     132.622  85.829 128.095  0.00  0.00    +0.000 OA
ATOM     58  CB  SER E   7     131.964  88.794 126.846  0.00  0.00    +0.000 C 
ATOM     59  OG  SER E   7     130.644  89.221 126.569  0.00  0.00    +0.000 OA
ATOM     60  HG  SER E   7     130.017  88.572 126.888  0.00  0.00    +0.000 HD
ATOM     61  N   NME E   8     130.484  86.049 127.429  0.00  0.00    +0.000 N 
ATOM     62  H   NME E   8     129.825  86.444 126.769  0.00  0.00    +0.000 HD
ATOM     63  C   NME E   8     130.013  85.032 128.359  0.00  0.00    +0.000 C 
TER 
REMARK  Name = /home/xianyang/aimnet2_score_pipelines/work/L1234-fixed-receptor-eint-20260921/L3/P40879/prepared.pdb
REMARK                            x       y       z     vdW  Elec       q    Type
REMARK                         _______ _______ _______ _____ _____    ______ ____
ATOM      1  CH3 ACE F   1     120.018  81.307 113.224  0.00  0.00    +0.000 C 
ATOM      2  C   ACE F   1     120.922  81.352 114.446  0.00  0.00    +0.000 C 
ATOM      3  O   ACE F   1     120.445  81.522 115.572  0.00  0.00    +0.000 OA
ATOM      4  N   LEU F   2     122.230  81.193 114.246  0.00  0.00    +0.000 N 
ATOM      5  H   LEU F   2     122.568  80.979 113.321  0.00  0.00    +0.000 HD
ATOM      6  CA  LEU F   2     123.165  81.257 115.363  0.00  0.00    +0.000 C 
ATOM      7  C   LEU F   2     123.149  82.641 115.998  0.00  0.00    +0.000 C 
ATOM      8  O   LEU F   2     123.155  82.770 117.227  0.00  0.00    +0.000 OA
ATOM      9  CB  LEU F   2     124.569  80.886 114.877  0.00  0.00    +0.000 C 
ATOM     10  CG  LEU F   2     125.697  80.416 115.809  0.00  0.00    +0.000 C 
ATOM     11  CD1 LEU F   2     126.982  80.264 115.008  0.00  0.00    +0.000 C 
ATOM     12  CD2 LEU F   2     125.939  81.322 117.009  0.00  0.00    +0.000 C 
ATOM     13  N   ALA F   3     123.115  83.688 115.173  0.00  0.00    +0.000 N 
ATOM     14  H   ALA F   3     123.138  83.539 114.178  0.00  0.00    +0.000 HD
ATOM     15  CA  ALA F   3     123.065  85.044 115.706  0.00  0.00    +0.000 C 
ATOM     16  C   ALA F   3     121.775  85.287 116.477  0.00  0.00    +0.000 C 
ATOM     17  O   ALA F   3     121.786  85.936 117.529  0.00  0.00    +0.000 OA
ATOM     18  CB  ALA F   3     123.212  86.060 114.574  0.00  0.00    +0.000 C 
ATOM     19  N   LEU F   4     120.653  84.775 115.972  0.00  0.00    +0.000 N 
ATOM     20  H   LEU F   4     120.687  84.211 115.139  0.00  0.00    +0.000 HD
ATOM     21  CA  LEU F   4     119.369  85.037 116.609  0.00  0.00    +0.000 C 
ATOM     22  C   LEU F   4     119.100  84.116 117.795  0.00  0.00    +0.000 C 
ATOM     23  O   LEU F   4     118.213  84.410 118.603  0.00  0.00    +0.000 OA
ATOM     24  CB  LEU F   4     118.247  84.912 115.575  0.00  0.00    +0.000 C 
ATOM     25  CG  LEU F   4     116.824  85.271 116.002  0.00  0.00    +0.000 C 
ATOM     26  CD1 LEU F   4     116.275  86.376 115.120  0.00  0.00    +0.000 C 
ATOM     27  CD2 LEU F   4     115.923  84.059 115.963  0.00  0.00    +0.000 C 
ATOM     28  N   GLY F   5     119.853  83.023 117.932  0.00  0.00    +0.000 N 
ATOM     29  H   GLY F   5     120.484  82.751 117.188  0.00  0.00    +0.000 HD
ATOM     30  CA  GLY F   5     119.635  82.102 119.034  0.00  0.00    +0.000 C 
ATOM     31  C   GLY F   5     120.070  82.629 120.384  0.00  0.00    +0.000 C 
ATOM     32  O   GLY F   5     119.601  82.131 121.411  0.00  0.00    +0.000 OA
ATOM     33  N   ASN F   6     120.954  83.625 120.407  0.00  0.00    +0.000 N 
ATOM     34  H   ASN F   6     121.314  83.961 119.525  0.00  0.00    +0.000 HD
ATOM     35  CA  ASN F   6     121.398  84.247 121.644  0.00  0.00    +0.000 C 
ATOM     36  C   ASN F   6     120.488  85.388 122.075  0.00  0.00    +0.000 C 
ATOM     37  O   ASN F   6     120.936  86.292 122.789  0.00  0.00    +0.000 OA
ATOM     38  CB  ASN F   6     122.834  84.753 121.496  0.00  0.00    +0.000 C 
ATOM     39  CG  ASN F   6     123.650  83.911 120.539  0.00  0.00    +0.000 C 
ATOM     40  OD1 ASN F   6     123.882  82.726 120.778  0.00  0.00    +0.000 OA
ATOM     41  ND2 ASN F   6     124.091  84.519 119.445  0.00  0.00    +0.000 N 
ATOM     42 HD21 ASN F   6     123.705  85.419 119.219  0.00  0.00    +0.000 HD
ATOM     43 HD22 ASN F   6     124.316  83.865 118.708  0.00  0.00    +0.000 HD
ATOM     44  N   LEU F   7     119.227  85.366 121.655  0.00  0.00    +0.000 N 
ATOM     45  H   LEU F   7     118.952  84.644 121.001  0.00  0.00    +0.000 HD
ATOM     46  CA  LEU F   7     118.301  86.459 121.903  0.00  0.00    +0.000 C 
ATOM     47  C   LEU F   7     117.303  86.163 123.011  0.00  0.00    +0.000 C 
ATOM     48  O   LEU F   7     116.519  87.047 123.365  0.00  0.00    +0.000 OA
ATOM     49  CB  LEU F   7     117.544  86.803 120.620  0.00  0.00    +0.000 C 
ATOM     50  CG  LEU F   7     118.094  87.998 119.851  0.00  0.00    +0.000 C 
ATOM     51  CD1 LEU F   7     117.945  89.249 120.685  0.00  0.00    +0.000 C 
ATOM     52  CD2 LEU F   7     119.547  87.771 119.482  0.00  0.00    +0.000 C 
ATOM     53  N   LYS F   8     117.297  84.944 123.553  0.00  0.00    +0.000 N 
ATOM     54  H   LYS F   8     117.911  84.238 123.167  0.00  0.00    +0.000 HD
ATOM     55  CA  LYS F   8     116.339  84.611 124.602  0.00  0.00    +0.000 C 
ATOM     56  C   LYS F   8     116.594  85.437 125.856  0.00  0.00    +0.000 C 
ATOM     57  O   LYS F   8     115.663  85.996 126.449  0.00  0.00    +0.000 OA
ATOM     58  CB  LYS F   8     116.406  83.116 124.915  0.00  0.00    +0.000 C 
ATOM     59  CG  LYS F   8     116.138  82.769 126.370  0.00  0.00    +0.000 C 
ATOM     60  CD  LYS F   8     115.918  81.278 126.554  0.00  0.00    +0.000 C 
ATOM     61  CE  LYS F   8     115.670  80.937 128.013  0.00  0.00    +0.000 C 
ATOM     62  NZ  LYS F   8     114.648  79.866 128.168  0.00  0.00    +0.000 N 
ATOM     63  HZ1 LYS F   8     113.768  80.154 127.758  0.00  0.00    +0.000 HD
ATOM     64  HZ2 LYS F   8     114.951  79.016 127.708  0.00  0.00    +0.000 HD
ATOM     65  HZ3 LYS F   8     114.495  79.659 129.148  0.00  0.00    +0.000 HD
ATOM     66  N   GLY F   9     117.859  85.534 126.268  0.00  0.00    +0.000 N 
ATOM     67  H   GLY F   9     118.586  85.078 125.740  0.00  0.00    +0.000 HD
ATOM     68  CA  GLY F   9     118.193  86.246 127.487  0.00  0.00    +0.000 C 
ATOM     69  C   GLY F   9     117.901  87.727 127.427  0.00  0.00    +0.000 C 
ATOM     70  O   GLY F   9     117.799  88.374 128.474  0.00  0.00    +0.000 OA
ATOM     71  N   MET F  10     117.765  88.281 126.226  0.00  0.00    +0.000 N 
ATOM     72  H   MET F  10     117.841  87.701 125.407  0.00  0.00    +0.000 HD
ATOM     73  CA  MET F  10     117.424  89.685 126.054  0.00  0.00    +0.000 C 
ATOM     74  C   MET F  10     115.935  89.894 125.825  0.00  0.00    +0.000 C 
ATOM     75  O   MET F  10     115.371  90.879 126.309  0.00  0.00    +0.000 OA
ATOM     76  CB  MET F  10     118.213  90.277 124.884  0.00  0.00    +0.000 C 
ATOM     77  CG  MET F  10     117.664  91.585 124.356  0.00  0.00    +0.000 C 
ATOM     78  SD  MET F  10     118.597  92.225 122.954  0.00  0.00    +0.000 S 
ATOM     79  CE  MET F  10     120.044  91.184 123.000  0.00  0.00    +0.000 C 
ATOM     80  N   LEU F  11     115.280  88.976 125.112  0.00  0.00    +0.000 N 
ATOM     81  H   LEU F  11     115.779  88.209 124.680  0.00  0.00    +0.000 HD
ATOM     82  CA  LEU F  11     113.846  89.103 124.888  0.00  0.00    +0.000 C 
ATOM     83  C   LEU F  11     113.050  88.788 126.145  0.00  0.00    +0.000 C 
ATOM     84  O   LEU F  11     111.917  89.260 126.288  0.00  0.00    +0.000 OA
ATOM     85  CB  LEU F  11     113.410  88.194 123.742  0.00  0.00    +0.000 C 
ATOM     86  CG  LEU F  11     112.955  88.929 122.484  0.00  0.00    +0.000 C 
ATOM     87  CD1 LEU F  11     112.415  87.952 121.457  0.00  0.00    +0.000 C 
ATOM     88  CD2 LEU F  11     111.911  89.970 122.839  0.00  0.00    +0.000 C 
ATOM     89  N   NME F  12     113.617  88.006 127.067  0.00  0.00    +0.000 N 
ATOM     90  H   NME F  12     114.526  87.598 126.890  0.00  0.00    +0.000 HD
ATOM     91  C   NME F  12     112.934  87.767 128.333  0.00  0.00    +0.000 C 
TER 
REMARK  Name = /home/xianyang/aimnet2_score_pipelines/work/L1234-fixed-receptor-eint-20260921/L3/P40879/prepared.pdb
REMARK                            x       y       z     vdW  Elec       q    Type
REMARK                         _______ _______ _______ _____ _____    ______ ____
ATOM      1  CH3 ACE G   1     117.734 108.486 117.129  0.00  0.00    +0.000 C 
ATOM      2  C   ACE G   1     116.940 108.114 118.369  0.00  0.00    +0.000 C 
ATOM      3  O   ACE G   1     116.679 108.980 119.215  0.00  0.00    +0.000 OA
ATOM      4  N   GLY G   2     116.546 106.845 118.488  0.00  0.00    +0.000 N 
ATOM      5  H   GLY G   2     116.723 106.196 117.737  0.00  0.00    +0.000 HD
ATOM      6  CA  GLY G   2     115.754 106.429 119.629  0.00  0.00    +0.000 C 
ATOM      7  C   GLY G   2     116.515 106.537 120.932  0.00  0.00    +0.000 C 
ATOM      8  O   GLY G   2     115.945 106.901 121.961  0.00  0.00    +0.000 OA
ATOM      9  N   LEU G   3     117.812 106.228 120.908  0.00  0.00    +0.000 N 
ATOM     10  H   LEU G   3     118.239 105.918 120.052  0.00  0.00    +0.000 HD
ATOM     11  CA  LEU G   3     118.610 106.365 122.120  0.00  0.00    +0.000 C 
ATOM     12  C   LEU G   3     118.625 107.810 122.602  0.00  0.00    +0.000 C 
ATOM     13  O   LEU G   3     118.423 108.082 123.791  0.00  0.00    +0.000 OA
ATOM     14  CB  LEU G   3     120.032 105.867 121.876  0.00  0.00    +0.000 C 
ATOM     15  CG  LEU G   3     120.951 105.995 123.087  0.00  0.00    +0.000 C 
ATOM     16  CD1 LEU G   3     120.778 104.800 123.998  0.00  0.00    +0.000 C 
ATOM     17  CD2 LEU G   3     122.396 106.138 122.652  0.00  0.00    +0.000 C 
ATOM     18  N   ALA G   4     118.842 108.754 121.685  0.00  0.00    +0.000 N 
ATOM     19  H   ALA G   4     118.904 108.507 120.714  0.00  0.00    +0.000 HD
ATOM     20  CA  ALA G   4     118.882 110.161 122.069  0.00  0.00    +0.000 C 
ATOM     21  C   ALA G   4     117.521 110.645 122.551  0.00  0.00    +0.000 C 
ATOM     22  O   ALA G   4     117.431 111.363 123.557  0.00  0.00    +0.000 OA
ATOM     23  CB  ALA G   4     119.369 111.012 120.899  0.00  0.00    +0.000 C 
ATOM     24  N   NME G   5     116.451 110.264 121.851  0.00  0.00    +0.000 N 
ATOM     25  H   NME G   5     116.561 109.677 121.032  0.00  0.00    +0.000 HD
ATOM     26  C   NME G   5     115.119 110.680 122.275  0.00  0.00    +0.000 C 
TER 
