REMARK  Name = /data/user_data/xianyang/t3-aimnet-affinity-balanced/L1/Q15059/pocket.pdb
REMARK                            x       y       z     vdW  Elec       q    Type
REMARK                         _______ _______ _______ _____ _____    ______ ____
ATOM      1  N   TRP A   1      17.538  -0.338  25.886  0.00  0.00    +0.000 N 
ATOM      2  CA  TRP A   1      16.853   0.438  26.920  0.00  0.00    +0.000 C 
ATOM      3  C   TRP A   1      16.865   1.962  26.714  0.00  0.00    +0.000 C 
ATOM      4  O   TRP A   1      15.847   2.590  27.042  0.00  0.00    +0.000 OA
ATOM      5  CB  TRP A   1      17.399   0.045  28.310  0.00  0.00    +0.000 C 
ATOM      6  CG  TRP A   1      18.875   0.278  28.466  0.00  0.00    +0.000 C 
ATOM      7  CD1 TRP A   1      19.882  -0.595  28.162  0.00  0.00    +0.000 C 
ATOM      8  CD2 TRP A   1      19.508   1.478  28.934  0.00  0.00    +0.000 C 
ATOM      9  NE1 TRP A   1      21.101  -0.011  28.403  0.00  0.00    +0.000 NA
ATOM     10  CE2 TRP A   1      20.903   1.259  28.882  0.00  0.00    +0.000 C 
ATOM     11  CE3 TRP A   1      19.030   2.723  29.380  0.00  0.00    +0.000 C 
ATOM     12  CZ2 TRP A   1      21.831   2.240  29.254  0.00  0.00    +0.000 C 
ATOM     13  CZ3 TRP A   1      19.949   3.694  29.770  0.00  0.00    +0.000 C 
ATOM     14  CH2 TRP A   1      21.340   3.443  29.702  0.00  0.00    +0.000 C 
ATOM     15  N   PRO A   2      17.908   2.619  26.173  0.00  0.00    +0.000 N 
ATOM     16  CA  PRO A   2      17.809   4.082  26.010  0.00  0.00    +0.000 C 
ATOM     17  C   PRO A   2      16.701   4.511  25.066  0.00  0.00    +0.000 C 
ATOM     18  O   PRO A   2      16.277   5.673  25.103  0.00  0.00    +0.000 OA
ATOM     19  CB  PRO A   2      19.185   4.479  25.452  0.00  0.00    +0.000 C 
ATOM     20  CG  PRO A   2      20.077   3.335  25.730  0.00  0.00    +0.000 C 
ATOM     21  CD  PRO A   2      19.205   2.131  25.654  0.00  0.00    +0.000 C 
ATOM     22  N   PHE A   3      16.206   3.607  24.232  0.00  0.00    +0.000 N 
ATOM     23  CA  PHE A   3      15.217   3.937  23.220  0.00  0.00    +0.000 C 
ATOM     24  C   PHE A   3      13.797   3.548  23.621  0.00  0.00    +0.000 C 
ATOM     25  O   PHE A   3      12.888   3.644  22.801  0.00  0.00    +0.000 OA
ATOM     26  CB  PHE A   3      15.626   3.278  21.912  0.00  0.00    +0.000 C 
ATOM     27  CG  PHE A   3      17.024   3.657  21.482  0.00  0.00    +0.000 A 
ATOM     28  CD1 PHE A   3      17.268   4.890  20.876  0.00  0.00    +0.000 A 
ATOM     29  CD2 PHE A   3      18.094   2.801  21.706  0.00  0.00    +0.000 A 
ATOM     30  CE1 PHE A   3      18.544   5.242  20.494  0.00  0.00    +0.000 A 
ATOM     31  CE2 PHE A   3      19.371   3.156  21.334  0.00  0.00    +0.000 A 
ATOM     32  CZ  PHE A   3      19.596   4.387  20.717  0.00  0.00    +0.000 A 
ATOM     33  H   TRP A   1      17.176  -0.077  24.969  0.00  0.00    +0.000 HD
ATOM     34  H   TRP A   1      17.377  -1.333  26.045  0.00  0.00    +0.000 HD
ATOM     35  H   TRP A   1      18.539  -0.146  25.924  0.00  0.00    +0.000 HD
ATOM     36  H   PHE A   3      16.521   2.677  24.301  0.00  0.00    +0.000 HD
TER 
REMARK  Name = /data/user_data/xianyang/t3-aimnet-affinity-balanced/L1/Q15059/pocket.pdb
REMARK                            x       y       z     vdW  Elec       q    Type
REMARK                         _______ _______ _______ _____ _____    ______ ____
ATOM      1  N   GLN B   1      12.023   5.225  25.657  0.00  0.00    +0.000 N 
ATOM      2  CA  GLN B   1      11.332   6.447  26.028  0.00  0.00    +0.000 C 
ATOM      3  C   GLN B   1      11.997   7.617  25.319  0.00  0.00    +0.000 C 
ATOM      4  O   GLN B   1      13.182   7.535  24.976  0.00  0.00    +0.000 OA
ATOM      5  CB  GLN B   1      11.381   6.659  27.549  0.00  0.00    +0.000 C 
ATOM      6  CG  GLN B   1      10.361   5.822  28.300  0.00  0.00    +0.000 C 
ATOM      7  CD  GLN B   1      10.176   6.250  29.756  0.00  0.00    +0.000 C 
ATOM      8  OE1 GLN B   1      10.963   5.872  30.629  0.00  0.00    +0.000 OA
ATOM      9  NE2 GLN B   1       9.122   7.028  30.023  0.00  0.00    +0.000 N 
ATOM     10  N   PRO B   2      11.266   8.716  25.095  0.00  0.00    +0.000 N 
ATOM     11  CA  PRO B   2      11.868   9.891  24.433  0.00  0.00    +0.000 C 
ATOM     12  C   PRO B   2      13.110  10.411  25.159  0.00  0.00    +0.000 C 
ATOM     13  O   PRO B   2      13.193  10.396  26.388  0.00  0.00    +0.000 OA
ATOM     14  CB  PRO B   2      10.745  10.939  24.466  0.00  0.00    +0.000 C 
ATOM     15  CG  PRO B   2       9.451  10.149  24.696  0.00  0.00    +0.000 C 
ATOM     16  CD  PRO B   2       9.860   8.935  25.489  0.00  0.00    +0.000 C 
ATOM     17  N   VAL B   3      14.076  10.903  24.378  0.00  0.00    +0.000 N 
ATOM     18  CA  VAL B   3      15.224  11.595  24.951  0.00  0.00    +0.000 C 
ATOM     19  C   VAL B   3      14.736  12.704  25.877  0.00  0.00    +0.000 C 
ATOM     20  O   VAL B   3      14.005  13.608  25.462  0.00  0.00    +0.000 OA
ATOM     21  CB  VAL B   3      16.144  12.163  23.858  0.00  0.00    +0.000 C 
ATOM     22  CG2 VAL B   3      17.151  13.120  24.470  0.00  0.00    +0.000 C 
ATOM     23  CG1 VAL B   3      16.857  11.031  23.138  0.00  0.00    +0.000 C 
ATOM     24  N   ASP B   4      15.122  12.629  27.138  0.00  0.00    +0.000 N 
ATOM     25  CA  ASP B   4      14.747  13.613  28.150  0.00  0.00    +0.000 C 
ATOM     26  C   ASP B   4      15.905  14.593  28.276  0.00  0.00    +0.000 C 
ATOM     27  O   ASP B   4      16.878  14.313  28.978  0.00  0.00    +0.000 OA
ATOM     28  CB  ASP B   4      14.458  12.900  29.466  0.00  0.00    +0.000 C 
ATOM     29  CG  ASP B   4      13.985  13.825  30.559  0.00  0.00    +0.000 C 
ATOM     30  OD1 ASP B   4      14.347  15.018  30.575  0.00  0.00    +0.000 OA
ATOM     31  OD2 ASP B   4      13.247  13.334  31.432  0.00  0.00    +0.000 OA
ATOM     32  H   GLN B   1      11.979   5.103  24.645  0.00  0.00    +0.000 HD
ATOM     33  H   GLN B   1      11.577   4.430  26.115  0.00  0.00    +0.000 HD
ATOM     34  H   GLN B   1      12.998   5.283  25.950  0.00  0.00    +0.000 HD
ATOM     35  H   GLN B   1       8.519   7.307  29.296  0.00  0.00    +0.000 HD
ATOM     36  H   GLN B   1       8.949   7.322  30.946  0.00  0.00    +0.000 HD
ATOM     37  H   VAL B   3      14.012  10.797  23.401  0.00  0.00    +0.000 HD
ATOM     38  H   ASP B   4      15.691  11.872  27.409  0.00  0.00    +0.000 HD
TER 
REMARK  Name = /data/user_data/xianyang/t3-aimnet-affinity-balanced/L1/Q15059/pocket.pdb
REMARK                            x       y       z     vdW  Elec       q    Type
REMARK                         _______ _______ _______ _____ _____    ______ ____
ATOM      1  N   LYS C   1      16.684  15.552  32.181  0.00  0.00    +0.000 N 
ATOM      2  CA  LYS C   1      17.430  14.547  32.938  0.00  0.00    +0.000 C 
ATOM      3  C   LYS C   1      18.869  14.442  32.449  0.00  0.00    +0.000 C 
ATOM      4  O   LYS C   1      19.813  14.490  33.245  0.00  0.00    +0.000 OA
ATOM      5  CB  LYS C   1      16.729  13.189  32.834  0.00  0.00    +0.000 C 
ATOM      6  CG  LYS C   1      17.554  12.020  33.374  0.00  0.00    +0.000 C 
ATOM      7  CD  LYS C   1      16.746  10.717  33.408  0.00  0.00    +0.000 C 
ATOM      8  CE  LYS C   1      16.991   9.944  34.712  0.00  0.00    +0.000 C 
ATOM      9  NZ  LYS C   1      16.248   8.647  34.804  0.00  0.00    +0.000 N 
ATOM     10  N   LEU C   2      19.055  14.319  31.133  0.00  0.00    +0.000 N 
ATOM     11  CA  LEU C   2      20.376  14.130  30.548  0.00  0.00    +0.000 C 
ATOM     12  C   LEU C   2      21.149  15.435  30.361  0.00  0.00    +0.000 C 
ATOM     13  O   LEU C   2      22.293  15.384  29.901  0.00  0.00    +0.000 OA
ATOM     14  CB  LEU C   2      20.253  13.412  29.199  0.00  0.00    +0.000 C 
ATOM     15  CG  LEU C   2      19.402  12.143  29.185  0.00  0.00    +0.000 C 
ATOM     16  CD1 LEU C   2      19.138  11.695  27.753  0.00  0.00    +0.000 C 
ATOM     17  CD2 LEU C   2      20.102  11.047  29.972  0.00  0.00    +0.000 C 
ATOM     18  H   LYS C   1      17.156  16.453  32.255  0.00  0.00    +0.000 HD
ATOM     19  H   LYS C   1      15.740  15.631  32.559  0.00  0.00    +0.000 HD
ATOM     20  H   LYS C   1      16.635  15.273  31.201  0.00  0.00    +0.000 HD
ATOM     21  H   LYS C   1      15.244   8.828  34.784  0.00  0.00    +0.000 HD
ATOM     22  H   LYS C   1      16.491   8.177  35.676  0.00  0.00    +0.000 HD
ATOM     23  H   LYS C   1      16.502   8.053  34.015  0.00  0.00    +0.000 HD
ATOM     24  H   LEU C   2      18.272  14.357  30.537  0.00  0.00    +0.000 HD
TER 
REMARK  Name = /data/user_data/xianyang/t3-aimnet-affinity-balanced/L1/Q15059/pocket.pdb
REMARK                            x       y       z     vdW  Elec       q    Type
REMARK                         _______ _______ _______ _____ _____    ______ ____
ATOM      1  N   LEU D   1      20.771  18.411  28.261  0.00  0.00    +0.000 N 
ATOM      2  CA  LEU D   1      21.037  18.587  26.836  0.00  0.00    +0.000 C 
ATOM      3  C   LEU D   1      20.338  19.858  26.355  0.00  0.00    +0.000 C 
ATOM      4  O   LEU D   1      19.312  19.809  25.658  0.00  0.00    +0.000 OA
ATOM      5  CB  LEU D   1      20.597  17.353  26.051  0.00  0.00    +0.000 C 
ATOM      6  CG  LEU D   1      21.004  15.987  26.612  0.00  0.00    +0.000 C 
ATOM      7  CD1 LEU D   1      20.370  14.914  25.768  0.00  0.00    +0.000 C 
ATOM      8  CD2 LEU D   1      22.515  15.818  26.614  0.00  0.00    +0.000 C 
ATOM      9  H   LEU D   1      21.234  17.564  28.591  0.00  0.00    +0.000 HD
ATOM     10  H   LEU D   1      19.765  18.329  28.412  0.00  0.00    +0.000 HD
ATOM     11  H   LEU D   1      21.128  19.216  28.775  0.00  0.00    +0.000 HD
TER 
REMARK  Name = /data/user_data/xianyang/t3-aimnet-affinity-balanced/L1/Q15059/pocket.pdb
REMARK                            x       y       z     vdW  Elec       q    Type
REMARK                         _______ _______ _______ _____ _____    ______ ____
ATOM      1  N   TYR E   1      19.719  19.846  22.489  0.00  0.00    +0.000 N 
ATOM      2  CA  TYR E   1      19.247  18.660  21.772  0.00  0.00    +0.000 C 
ATOM      3  C   TYR E   1      18.097  18.993  20.823  0.00  0.00    +0.000 C 
ATOM      4  O   TYR E   1      18.104  18.593  19.651  0.00  0.00    +0.000 OA
ATOM      5  CB  TYR E   1      18.809  17.567  22.745  0.00  0.00    +0.000 C 
ATOM      6  CG  TYR E   1      18.438  16.260  22.039  0.00  0.00    +0.000 A 
ATOM      7  CD2 TYR E   1      17.114  15.945  21.749  0.00  0.00    +0.000 A 
ATOM      8  CD1 TYR E   1      19.422  15.351  21.651  0.00  0.00    +0.000 A 
ATOM      9  CE2 TYR E   1      16.786  14.749  21.098  0.00  0.00    +0.000 A 
ATOM     10  CE1 TYR E   1      19.099  14.166  21.012  0.00  0.00    +0.000 A 
ATOM     11  CZ  TYR E   1      17.781  13.868  20.738  0.00  0.00    +0.000 A 
ATOM     12  OH  TYR E   1      17.480  12.681  20.093  0.00  0.00    +0.000 OA
ATOM     13  H   TYR E   1      20.005  20.558  21.817  0.00  0.00    +0.000 HD
ATOM     14  H   TYR E   1      20.514  19.594  23.076  0.00  0.00    +0.000 HD
ATOM     15  H   TYR E   1      18.967  20.212  23.073  0.00  0.00    +0.000 HD
ATOM     16  H   TYR E   1      18.167  12.091  19.854  0.00  0.00    +0.000 HD
TER 
REMARK  Name = /data/user_data/xianyang/t3-aimnet-affinity-balanced/L1/Q15059/pocket.pdb
REMARK                            x       y       z     vdW  Elec       q    Type
REMARK                         _______ _______ _______ _____ _____    ______ ____
ATOM      1  N   CYS F   1      20.353   9.845  16.516  0.00  0.00    +0.000 N 
ATOM      2  CA  CYS F   1      21.415   9.436  17.419  0.00  0.00    +0.000 C 
ATOM      3  C   CYS F   1      22.793   9.724  16.824  0.00  0.00    +0.000 C 
ATOM      4  O   CYS F   1      23.677  10.274  17.500  0.00  0.00    +0.000 OA
ATOM      5  CB  CYS F   1      21.238   7.949  17.716  0.00  0.00    +0.000 C 
ATOM      6  SG  CYS F   1      22.103   7.368  19.100  0.00  0.00    +0.000 S 
ATOM      7  H   CYS F   1      20.451  10.838  16.303  0.00  0.00    +0.000 HD
ATOM      8  H   CYS F   1      19.449   9.680  16.958  0.00  0.00    +0.000 HD
ATOM      9  H   CYS F   1      20.413   9.305  15.653  0.00  0.00    +0.000 HD
ATOM     10  H   CYS F   1      23.439   7.514  18.894  0.00  0.00    +0.000 HD
TER 
REMARK  Name = /data/user_data/xianyang/t3-aimnet-affinity-balanced/L1/Q15059/pocket.pdb
REMARK                            x       y       z     vdW  Elec       q    Type
REMARK                         _______ _______ _______ _____ _____    ______ ____
ATOM      1  N   TYR G   1      23.201  13.779  16.616  0.00  0.00    +0.000 N 
ATOM      2  CA  TYR G   1      23.420  14.590  17.815  0.00  0.00    +0.000 C 
ATOM      3  C   TYR G   1      24.751  14.277  18.503  0.00  0.00    +0.000 C 
ATOM      4  O   TYR G   1      25.446  15.196  18.949  0.00  0.00    +0.000 OA
ATOM      5  CB  TYR G   1      22.273  14.415  18.819  0.00  0.00    +0.000 C 
ATOM      6  CG  TYR G   1      22.530  15.190  20.096  0.00  0.00    +0.000 A 
ATOM      7  CD1 TYR G   1      22.439  16.579  20.108  0.00  0.00    +0.000 A 
ATOM      8  CD2 TYR G   1      22.930  14.548  21.267  0.00  0.00    +0.000 A 
ATOM      9  CE1 TYR G   1      22.705  17.303  21.253  0.00  0.00    +0.000 A 
ATOM     10  CE2 TYR G   1      23.203  15.268  22.423  0.00  0.00    +0.000 A 
ATOM     11  CZ  TYR G   1      23.087  16.653  22.402  0.00  0.00    +0.000 A 
ATOM     12  OH  TYR G   1      23.336  17.400  23.529  0.00  0.00    +0.000 OA
ATOM     13  N   ASN G   2      25.119  13.001  18.604  0.00  0.00    +0.000 N 
ATOM     14  CA  ASN G   2      26.200  12.574  19.482  0.00  0.00    +0.000 C 
ATOM     15  C   ASN G   2      27.543  12.558  18.751  0.00  0.00    +0.000 C 
ATOM     16  O   ASN G   2      27.628  12.711  17.536  0.00  0.00    +0.000 OA
ATOM     17  CB  ASN G   2      25.890  11.189  20.059  0.00  0.00    +0.000 C 
ATOM     18  CG  ASN G   2      24.629  11.180  20.904  0.00  0.00    +0.000 C 
ATOM     19  OD1 ASN G   2      24.612  11.707  22.013  0.00  0.00    +0.000 OA
ATOM     20  ND2 ASN G   2      23.566  10.578  20.383  0.00  0.00    +0.000 N 
ATOM     21  H   TYR G   1      23.977  13.914  15.968  0.00  0.00    +0.000 HD
ATOM     22  H   TYR G   1      22.330  14.063  16.168  0.00  0.00    +0.000 HD
ATOM     23  H   TYR G   1      23.144  12.795  16.877  0.00  0.00    +0.000 HD
ATOM     24  H   TYR G   1      23.254  18.333  23.500  0.00  0.00    +0.000 HD
ATOM     25  H   ASN G   2      24.645  12.325  18.068  0.00  0.00    +0.000 HD
ATOM     26  H   ASN G   2      23.621  10.167  19.490  0.00  0.00    +0.000 HD
ATOM     27  H   ASN G   2      22.723  10.542  20.890  0.00  0.00    +0.000 HD
TER 
REMARK  Name = /data/user_data/xianyang/t3-aimnet-affinity-balanced/L1/Q15059/pocket.pdb
REMARK                            x       y       z     vdW  Elec       q    Type
REMARK                         _______ _______ _______ _____ _____    ______ ____
ATOM      1  N   ASP H   1      29.103   6.031  23.371  0.00  0.00    +0.000 N 
ATOM      2  CA  ASP H   1      28.509   4.709  23.557  0.00  0.00    +0.000 C 
ATOM      3  C   ASP H   1      27.181   4.551  22.821  0.00  0.00    +0.000 C 
ATOM      4  O   ASP H   1      26.916   3.497  22.223  0.00  0.00    +0.000 OA
ATOM      5  CB  ASP H   1      28.318   4.436  25.048  0.00  0.00    +0.000 C 
ATOM      6  CG  ASP H   1      29.634   4.311  25.783  0.00  0.00    +0.000 C 
ATOM      7  OD1 ASP H   1      30.474   3.501  25.347  0.00  0.00    +0.000 OA
ATOM      8  OD2 ASP H   1      29.831   5.014  26.793  0.00  0.00    +0.000 OA
ATOM      9  N   ILE H   2      26.331   5.582  22.849  0.00  0.00    +0.000 N 
ATOM     10  CA  ILE H   2      24.979   5.424  22.317  0.00  0.00    +0.000 C 
ATOM     11  C   ILE H   2      25.022   5.219  20.810  0.00  0.00    +0.000 C 
ATOM     12  O   ILE H   2      24.198   4.487  20.248  0.00  0.00    +0.000 OA
ATOM     13  CB  ILE H   2      24.108   6.629  22.731  0.00  0.00    +0.000 C 
ATOM     14  CG1 ILE H   2      22.619   6.339  22.523  0.00  0.00    +0.000 C 
ATOM     15  CG2 ILE H   2      24.556   7.910  22.026  0.00  0.00    +0.000 C 
ATOM     16  CD1 ILE H   2      22.104   5.197  23.341  0.00  0.00    +0.000 C 
ATOM     17  H   ASP H   1      29.229   6.210  22.375  0.00  0.00    +0.000 HD
ATOM     18  H   ASP H   1      30.008   6.066  23.840  0.00  0.00    +0.000 HD
ATOM     19  H   ASP H   1      28.486   6.740  23.768  0.00  0.00    +0.000 HD
ATOM     20  H   ILE H   2      26.615   6.446  23.227  0.00  0.00    +0.000 HD
TER 
REMARK  Name = /data/user_data/xianyang/t3-aimnet-affinity-balanced/L1/Q15059/pocket.pdb
REMARK                            x       y       z     vdW  Elec       q    Type
REMARK                         _______ _______ _______ _____ _____    ______ ____
ATOM      1  N   MET I   1      25.633   1.635  20.358  0.00  0.00    +0.000 N 
ATOM      2  CA  MET I   1      24.418   0.890  20.691  0.00  0.00    +0.000 C 
ATOM      3  C   MET I   1      23.384   0.999  19.582  0.00  0.00    +0.000 C 
ATOM      4  O   MET I   1      22.718   0.012  19.259  0.00  0.00    +0.000 OA
ATOM      5  CB  MET I   1      23.819   1.384  22.014  0.00  0.00    +0.000 C 
ATOM      6  CG  MET I   1      24.797   1.366  23.189  0.00  0.00    +0.000 C 
ATOM      7  SD  MET I   1      24.198   2.267  24.637  0.00  0.00    +0.000 S 
ATOM      8  CE  MET I   1      22.943   1.180  25.246  0.00  0.00    +0.000 C 
ATOM      9  H   MET I   1      26.013   1.290  19.476  0.00  0.00    +0.000 HD
ATOM     10  H   MET I   1      26.323   1.508  21.098  0.00  0.00    +0.000 HD
ATOM     11  H   MET I   1      25.410   2.626  20.267  0.00  0.00    +0.000 HD
TER 
