REMARK  Name = /home/xianyang/aimnet2_score_pipelines/work/L1234-fixed-receptor-eint-20260921/L1/P62937/prepared.pdb
REMARK                            x       y       z     vdW  Elec       q    Type
REMARK                         _______ _______ _______ _____ _____    ______ ____
ATOM      1  CH3 ACE A   1      48.021  41.814  37.054  0.00  0.00    +0.000 C 
ATOM      2  C   ACE A   1      48.215  42.192  38.515  0.00  0.00    +0.000 C 
ATOM      3  O   ACE A   1      47.297  42.674  39.186  0.00  0.00    +0.000 OA
ATOM      4  N   PHE A   2      49.431  41.939  38.993  0.00  0.00    +0.000 N 
ATOM      5  H   PHE A   2      50.134  41.570  38.372  0.00  0.00    +0.000 HD
ATOM      6  CA  PHE A   2      49.845  42.334  40.331  0.00  0.00    +0.000 C 
ATOM      7  C   PHE A   2      50.431  43.726  40.165  0.00  0.00    +0.000 C 
ATOM      8  O   PHE A   2      51.542  43.872  39.640  0.00  0.00    +0.000 OA
ATOM      9  CB  PHE A   2      50.869  41.356  40.908  0.00  0.00    +0.000 C 
ATOM     10  CG  PHE A   2      50.262  40.115  41.466  0.00  0.00    +0.000 A 
ATOM     11  CD1 PHE A   2      49.993  40.009  42.818  0.00  0.00    +0.000 A 
ATOM     12  CD2 PHE A   2      49.940  39.056  40.645  0.00  0.00    +0.000 A 
ATOM     13  CE1 PHE A   2      49.425  38.875  43.328  0.00  0.00    +0.000 A 
ATOM     14  CE2 PHE A   2      49.363  37.927  41.160  0.00  0.00    +0.000 A 
ATOM     15  CZ  PHE A   2      49.112  37.836  42.498  0.00  0.00    +0.000 A 
ATOM     16  N   HIS A   3      49.718  44.747  40.622  0.00  0.00    +0.000 N 
ATOM     17  H   HIS A   3      48.873  44.567  41.140  0.00  0.00    +0.000 HD
ATOM     18  CA  HIS A   3      50.137  46.125  40.377  0.00  0.00    +0.000 C 
ATOM     19  C   HIS A   3      51.100  46.697  41.414  0.00  0.00    +0.000 C 
ATOM     20  O   HIS A   3      51.723  47.733  41.175  0.00  0.00    +0.000 OA
ATOM     21  CB  HIS A   3      48.930  47.041  40.250  0.00  0.00    +0.000 C 
ATOM     22  CG  HIS A   3      48.068  47.092  41.473  0.00  0.00    +0.000 A 
ATOM     23  ND1 HIS A   3      47.108  46.142  41.749  0.00  0.00    +0.000 N 
ATOM     24  HD1 HIS A   3      46.863  45.365  41.155  0.00  0.00    +0.000 HD
ATOM     25  CD2 HIS A   3      48.026  47.979  42.494  0.00  0.00    +0.000 A 
ATOM     26  CE1 HIS A   3      46.493  46.458  42.874  0.00  0.00    +0.000 A 
ATOM     27  NE2 HIS A   3      47.032  47.567  43.349  0.00  0.00    +0.000 NA
ATOM     28  N   ARG A   4      51.225  46.041  42.557  0.00  0.00    +0.000 N 
ATOM     29  H   ARG A   4      50.678  45.201  42.718  0.00  0.00    +0.000 HD
ATOM     30  CA  ARG A   4      52.099  46.553  43.604  0.00  0.00    +0.000 C 
ATOM     31  C   ARG A   4      52.794  45.402  44.322  0.00  0.00    +0.000 C 
ATOM     32  O   ARG A   4      52.145  44.576  44.973  0.00  0.00    +0.000 OA
ATOM     33  CB  ARG A   4      51.291  47.401  44.587  0.00  0.00    +0.000 C 
ATOM     34  CG  ARG A   4      52.126  48.140  45.633  0.00  0.00    +0.000 C 
ATOM     35  CD  ARG A   4      51.299  49.004  46.570  0.00  0.00    +0.000 C 
ATOM     36  NE  ARG A   4      50.561  50.026  45.829  0.00  0.00    +0.000 N 
ATOM     37  HE  ARG A   4      51.067  50.520  45.115  0.00  0.00    +0.000 HD
ATOM     38  CZ  ARG A   4      49.272  50.307  45.988  0.00  0.00    +0.000 C 
ATOM     39  NH1 ARG A   4      48.709  51.250  45.246  0.00  0.00    +0.000 N 
ATOM     40 HH11 ARG A   4      49.206  51.645  44.471  0.00  0.00    +0.000 HD
ATOM     41 HH12 ARG A   4      47.710  51.364  45.281  0.00  0.00    +0.000 HD
ATOM     42  NH2 ARG A   4      48.545  49.674  46.898  0.00  0.00    +0.000 N 
ATOM     43 HH21 ARG A   4      48.903  48.837  47.343  0.00  0.00    +0.000 HD
ATOM     44 HH22 ARG A   4      47.581  49.904  47.014  0.00  0.00    +0.000 HD
ATOM     45  N   ILE A   5      54.114  45.349  44.183  0.00  0.00    +0.000 N 
ATOM     46  H   ILE A   5      54.579  46.038  43.611  0.00  0.00    +0.000 HD
ATOM     47  CA  ILE A   5      54.923  44.338  44.825  0.00  0.00    +0.000 C 
ATOM     48  C   ILE A   5      56.061  45.028  45.564  0.00  0.00    +0.000 C 
ATOM     49  O   ILE A   5      56.900  45.700  44.958  0.00  0.00    +0.000 OA
ATOM     50  CB  ILE A   5      55.480  43.340  43.801  0.00  0.00    +0.000 C 
ATOM     51  CG1 ILE A   5      54.332  42.638  43.069  0.00  0.00    +0.000 C 
ATOM     52  CG2 ILE A   5      56.381  42.320  44.503  0.00  0.00    +0.000 C 
ATOM     53  CD1 ILE A   5      54.784  41.596  42.089  0.00  0.00    +0.000 C 
ATOM     54  N   ILE A   6      56.052  44.886  46.881  0.00  0.00    +0.000 N 
ATOM     55  H   ILE A   6      55.351  44.287  47.309  0.00  0.00    +0.000 HD
ATOM     56  CA  ILE A   6      57.070  45.471  47.741  0.00  0.00    +0.000 C 
ATOM     57  C   ILE A   6      57.833  44.312  48.365  0.00  0.00    +0.000 C 
ATOM     58  O   ILE A   6      57.302  43.576  49.197  0.00  0.00    +0.000 OA
ATOM     59  CB  ILE A   6      56.419  46.366  48.810  0.00  0.00    +0.000 C 
ATOM     60  CG1 ILE A   6      55.663  47.509  48.129  0.00  0.00    +0.000 C 
ATOM     61  CG2 ILE A   6      57.481  46.917  49.754  0.00  0.00    +0.000 C 
ATOM     62  CD1 ILE A   6      54.830  48.359  49.055  0.00  0.00    +0.000 C 
ATOM     63  N   PRO A   7      59.080  44.110  47.952  0.00  0.00    +0.000 N 
ATOM     64  CA  PRO A   7      59.862  42.997  48.489  0.00  0.00    +0.000 C 
ATOM     65  C   PRO A   7      59.971  43.032  50.010  0.00  0.00    +0.000 C 
ATOM     66  O   PRO A   7      60.167  44.107  50.602  0.00  0.00    +0.000 OA
ATOM     67  CB  PRO A   7      61.233  43.192  47.835  0.00  0.00    +0.000 C 
ATOM     68  CG  PRO A   7      60.954  43.950  46.612  0.00  0.00    +0.000 C 
ATOM     69  CD  PRO A   7      59.830  44.863  46.932  0.00  0.00    +0.000 C 
ATOM     70  N   GLY A   8      59.823  41.859  50.622  0.00  0.00    +0.000 N 
ATOM     71  H   GLY A   8      59.639  41.039  50.065  0.00  0.00    +0.000 HD
ATOM     72  CA  GLY A   8      59.885  41.717  52.068  0.00  0.00    +0.000 C 
ATOM     73  C   GLY A   8      58.587  42.049  52.778  0.00  0.00    +0.000 C 
ATOM     74  O   GLY A   8      58.503  41.994  54.006  0.00  0.00    +0.000 OA
ATOM     75  N   PHE A   9      57.558  42.379  52.007  0.00  0.00    +0.000 N 
ATOM     76  H   PHE A   9      57.690  42.471  51.008  0.00  0.00    +0.000 HD
ATOM     77  CA  PHE A   9      56.282  42.784  52.582  0.00  0.00    +0.000 C 
ATOM     78  C   PHE A   9      55.112  42.004  51.970  0.00  0.00    +0.000 C 
ATOM     79  O   PHE A   9      54.575  41.105  52.607  0.00  0.00    +0.000 OA
ATOM     80  CB  PHE A   9      56.113  44.303  52.404  0.00  0.00    +0.000 C 
ATOM     81  CG  PHE A   9      54.839  44.871  52.972  0.00  0.00    +0.000 A 
ATOM     82  CD1 PHE A   9      54.385  46.117  52.542  0.00  0.00    +0.000 A 
ATOM     83  CD2 PHE A   9      54.109  44.202  53.933  0.00  0.00    +0.000 A 
ATOM     84  CE1 PHE A   9      53.226  46.649  53.045  0.00  0.00    +0.000 A 
ATOM     85  CE2 PHE A   9      52.937  44.744  54.447  0.00  0.00    +0.000 A 
ATOM     86  CZ  PHE A   9      52.504  45.976  54.003  0.00  0.00    +0.000 A 
ATOM     87  N   MET A  10      54.724  42.338  50.746  0.00  0.00    +0.000 N 
ATOM     88  H   MET A  10      55.250  43.018  50.212  0.00  0.00    +0.000 HD
ATOM     89  CA  MET A  10      53.546  41.702  50.140  0.00  0.00    +0.000 C 
ATOM     90  C   MET A  10      53.435  41.945  48.642  0.00  0.00    +0.000 C 
ATOM     91  O   MET A  10      54.090  42.828  48.089  0.00  0.00    +0.000 OA
ATOM     92  CB  MET A  10      52.270  42.208  50.823  0.00  0.00    +0.000 C 
ATOM     93  CG  MET A  10      52.059  43.702  50.715  0.00  0.00    +0.000 C 
ATOM     94  SD  MET A  10      51.075  44.194  49.277  0.00  0.00    +0.000 S 
ATOM     95  CE  MET A  10      51.949  45.621  48.716  0.00  0.00    +0.000 C 
ATOM     96  N   CYS A  11      52.600  41.131  48.001  0.00  0.00    +0.000 N 
ATOM     97  H   CYS A  11      52.146  40.395  48.533  0.00  0.00    +0.000 HD
ATOM     98  CA  CYS A  11      52.285  41.262  46.580  0.00  0.00    +0.000 C 
ATOM     99  C   CYS A  11      50.790  41.529  46.492  0.00  0.00    +0.000 C 
ATOM    100  O   CYS A  11      50.003  40.737  47.010  0.00  0.00    +0.000 OA
ATOM    101  CB  CYS A  11      52.575  39.969  45.827  0.00  0.00    +0.000 C 
ATOM    102  SG  CYS A  11      54.289  39.419  45.886  0.00  0.00    +0.000 S 
ATOM    103  HG  CYS A  11      54.832  40.611  46.150  0.00  0.00    +0.000 HD
ATOM    104  N   GLN A  12      50.408  42.623  45.836  0.00  0.00    +0.000 N 
ATOM    105  H   GLN A  12      51.109  43.249  45.459  0.00  0.00    +0.000 HD
ATOM    106  CA  GLN A  12      49.013  43.041  45.749  0.00  0.00    +0.000 C 
ATOM    107  C   GLN A  12      48.492  43.003  44.316  0.00  0.00    +0.000 C 
ATOM    108  O   GLN A  12      49.163  43.444  43.396  0.00  0.00    +0.000 OA
ATOM    109  CB  GLN A  12      48.861  44.464  46.289  0.00  0.00    +0.000 C 
ATOM    110  CG  GLN A  12      47.426  44.982  46.359  0.00  0.00    +0.000 C 
ATOM    111  CD  GLN A  12      47.308  46.336  47.032  0.00  0.00    +0.000 C 
ATOM    112  OE1 GLN A  12      48.216  46.754  47.750  0.00  0.00    +0.000 OA
ATOM    113  NE2 GLN A  12      46.193  47.024  46.803  0.00  0.00    +0.000 N 
ATOM    114 HE21 GLN A  12      45.530  46.743  46.080  0.00  0.00    +0.000 HD
ATOM    115 HE22 GLN A  12      46.064  47.901  47.255  0.00  0.00    +0.000 HD
ATOM    116  N   GLY A  13      47.268  42.533  44.151  0.00  0.00    +0.000 N 
ATOM    117  H   GLY A  13      46.727  42.239  44.962  0.00  0.00    +0.000 HD
ATOM    118  CA  GLY A  13      46.654  42.481  42.839  0.00  0.00    +0.000 C 
ATOM    119  C   GLY A  13      45.144  42.500  42.943  0.00  0.00    +0.000 C 
ATOM    120  O   GLY A  13      44.586  42.859  43.980  0.00  0.00    +0.000 OA
ATOM    121  N   NME A  14      44.473  42.155  41.852  0.00  0.00    +0.000 N 
ATOM    122  H   NME A  14      44.987  41.888  41.024  0.00  0.00    +0.000 HD
ATOM    123  C   NME A  14      43.026  42.021  41.871  0.00  0.00    +0.000 C 
TER 
REMARK  Name = /home/xianyang/aimnet2_score_pipelines/work/L1234-fixed-receptor-eint-20260921/L1/P62937/prepared.pdb
REMARK                            x       y       z     vdW  Elec       q    Type
REMARK                         _______ _______ _______ _____ _____    ______ ____
ATOM      1  CH3 ACE B   1      40.351  43.651  36.893  0.00  0.00    +0.000 C 
ATOM      2  C   ACE B   1      39.449  44.630  36.118  0.00  0.00    +0.000 C 
ATOM      3  O   ACE B   1      39.113  44.373  34.959  0.00  0.00    +0.000 OA
ATOM      4  N   THR B   2      39.067  45.750  36.731  0.00  0.00    +0.000 N 
ATOM      5  H   THR B   2      39.281  45.882  37.704  0.00  0.00    +0.000 HD
ATOM      6  CA  THR B   2      38.207  46.717  36.035  0.00  0.00    +0.000 C 
ATOM      7  C   THR B   2      38.956  47.924  35.478  0.00  0.00    +0.000 C 
ATOM      8  O   THR B   2      38.764  48.280  34.316  0.00  0.00    +0.000 OA
ATOM      9  CB  THR B   2      37.055  47.203  36.924  0.00  0.00    +0.000 C 
ATOM     10  OG1 THR B   2      37.562  47.840  38.104  0.00  0.00    +0.000 OA
ATOM     11  HG1 THR B   2      36.781  48.267  38.482  0.00  0.00    +0.000 HD
ATOM     12  CG2 THR B   2      36.225  46.035  37.438  0.00  0.00    +0.000 C 
ATOM     13  N   ARG B   3      39.785  48.567  36.294  0.00  0.00    +0.000 N 
ATOM     14  H   ARG B   3      39.792  48.287  37.262  0.00  0.00    +0.000 HD
ATOM     15  CA  ARG B   3      40.503  49.764  35.851  0.00  0.00    +0.000 C 
ATOM     16  C   ARG B   3      41.957  49.459  35.498  0.00  0.00    +0.000 C 
ATOM     17  O   ARG B   3      42.597  50.225  34.780  0.00  0.00    +0.000 OA
ATOM     18  CB  ARG B   3      40.426  50.860  36.916  0.00  0.00    +0.000 C 
ATOM     19  CG  ARG B   3      39.002  51.328  37.246  0.00  0.00    +0.000 C 
ATOM     20  CD  ARG B   3      38.952  52.390  38.337  0.00  0.00    +0.000 C 
ATOM     21  NE  ARG B   3      37.599  52.839  38.672  0.00  0.00    +0.000 N 
ATOM     22  HE  ARG B   3      36.924  52.900  37.929  0.00  0.00    +0.000 HD
ATOM     23  CZ  ARG B   3      37.217  53.221  39.890  0.00  0.00    +0.000 C 
ATOM     24  NH1 ARG B   3      38.081  53.201  40.902  0.00  0.00    +0.000 N 
ATOM     25 HH11 ARG B   3      39.040  52.928  40.759  0.00  0.00    +0.000 HD
ATOM     26 HH12 ARG B   3      37.794  53.402  41.842  0.00  0.00    +0.000 HD
ATOM     27  NH2 ARG B   3      35.967  53.621  40.102  0.00  0.00    +0.000 N 
ATOM     28 HH21 ARG B   3      35.312  53.657  39.344  0.00  0.00    +0.000 HD
ATOM     29 HH22 ARG B   3      35.703  53.902  41.028  0.00  0.00    +0.000 HD
ATOM     30  N   HIS B   4      42.473  48.343  36.009  0.00  0.00    +0.000 N 
ATOM     31  H   HIS B   4      41.843  47.702  36.458  0.00  0.00    +0.000 HD
ATOM     32  CA  HIS B   4      43.837  47.898  35.728  0.00  0.00    +0.000 C 
ATOM     33  C   HIS B   4      44.915  48.945  36.036  0.00  0.00    +0.000 C 
ATOM     34  O   HIS B   4      45.972  48.962  35.400  0.00  0.00    +0.000 OA
ATOM     35  CB  HIS B   4      43.947  47.430  34.274  0.00  0.00    +0.000 C 
ATOM     36  CG  HIS B   4      43.064  46.263  33.954  0.00  0.00    +0.000 A 
ATOM     37  ND1 HIS B   4      43.489  44.955  34.066  0.00  0.00    +0.000 N 
ATOM     38  HD1 HIS B   4      44.429  44.661  34.277  0.00  0.00    +0.000 HD
ATOM     39  CD2 HIS B   4      41.774  46.206  33.544  0.00  0.00    +0.000 A 
ATOM     40  CE1 HIS B   4      42.500  44.144  33.733  0.00  0.00    +0.000 A 
ATOM     41  NE2 HIS B   4      41.450  44.878  33.409  0.00  0.00    +0.000 NA
ATOM     42  N   ASN B   5      44.645  49.814  37.007  0.00  0.00    +0.000 N 
ATOM     43  H   ASN B   5      43.712  49.862  37.378  0.00  0.00    +0.000 HD
ATOM     44  CA  ASN B   5      45.620  50.815  37.438  0.00  0.00    +0.000 C 
ATOM     45  C   ASN B   5      45.755  50.889  38.965  0.00  0.00    +0.000 C 
ATOM     46  O   ASN B   5      46.393  51.799  39.490  0.00  0.00    +0.000 OA
ATOM     47  CB  ASN B   5      45.256  52.187  36.884  0.00  0.00    +0.000 C 
ATOM     48  CG  ASN B   5      43.865  52.610  37.261  0.00  0.00    +0.000 C 
ATOM     49  OD1 ASN B   5      43.313  52.140  38.256  0.00  0.00    +0.000 OA
ATOM     50  ND2 ASN B   5      43.282  53.505  36.468  0.00  0.00    +0.000 N 
ATOM     51 HD21 ASN B   5      42.372  53.845  36.713  0.00  0.00    +0.000 HD
ATOM     52 HD22 ASN B   5      43.765  53.830  35.648  0.00  0.00    +0.000 HD
ATOM     53  N   GLY B   6      45.159  49.933  39.673  0.00  0.00    +0.000 N 
ATOM     54  H   GLY B   6      44.734  49.167  39.180  0.00  0.00    +0.000 HD
ATOM     55  CA  GLY B   6      45.236  49.885  41.124  0.00  0.00    +0.000 C 
ATOM     56  C   GLY B   6      44.106  50.537  41.899  0.00  0.00    +0.000 C 
ATOM     57  O   GLY B   6      44.104  50.492  43.123  0.00  0.00    +0.000 OA
ATOM     58  N   THR B   7      43.143  51.151  41.222  0.00  0.00    +0.000 N 
ATOM     59  H   THR B   7      43.254  51.307  40.227  0.00  0.00    +0.000 HD
ATOM     60  CA  THR B   7      42.059  51.800  41.954  0.00  0.00    +0.000 C 
ATOM     61  C   THR B   7      40.726  51.086  41.810  0.00  0.00    +0.000 C 
ATOM     62  O   THR B   7      39.760  51.469  42.461  0.00  0.00    +0.000 OA
ATOM     63  CB  THR B   7      41.866  53.265  41.497  0.00  0.00    +0.000 C 
ATOM     64  OG1 THR B   7      41.491  53.308  40.114  0.00  0.00    +0.000 OA
ATOM     65  HG1 THR B   7      42.296  53.143  39.591  0.00  0.00    +0.000 HD
ATOM     66  CG2 THR B   7      43.166  54.040  41.567  0.00  0.00    +0.000 C 
ATOM     67  N   GLY B   8      40.670  50.058  40.966  0.00  0.00    +0.000 N 
ATOM     68  H   GLY B   8      41.524  49.733  40.545  0.00  0.00    +0.000 HD
ATOM     69  CA  GLY B   8      39.408  49.395  40.671  0.00  0.00    +0.000 C 
ATOM     70  C   GLY B   8      39.180  48.047  41.325  0.00  0.00    +0.000 C 
ATOM     71  O   GLY B   8      39.812  47.696  42.321  0.00  0.00    +0.000 OA
ATOM     72  N   GLY B   9      38.270  47.286  40.731  0.00  0.00    +0.000 N 
ATOM     73  H   GLY B   9      37.798  47.630  39.912  0.00  0.00    +0.000 HD
ATOM     74  CA  GLY B   9      37.867  45.999  41.261  0.00  0.00    +0.000 C 
ATOM     75  C   GLY B   9      36.459  46.086  41.819  0.00  0.00    +0.000 C 
ATOM     76  O   GLY B   9      35.950  47.176  42.109  0.00  0.00    +0.000 OA
ATOM     77  N   NME B  10      35.810  44.933  41.949  0.00  0.00    +0.000 N 
ATOM     78  H   NME B  10      36.304  44.076  41.744  0.00  0.00    +0.000 HD
ATOM     79  C   NME B  10      34.466  44.865  42.500  0.00  0.00    +0.000 C 
TER 
REMARK  Name = /home/xianyang/aimnet2_score_pipelines/work/L1234-fixed-receptor-eint-20260921/L1/P62937/prepared.pdb
REMARK                            x       y       z     vdW  Elec       q    Type
REMARK                         _______ _______ _______ _____ _____    ______ ____
ATOM      1  CH3 ACE C   1      46.082  35.936  51.895  0.00  0.00    +0.000 C 
ATOM      2  C   ACE C   1      45.052  36.813  52.603  0.00  0.00    +0.000 C 
ATOM      3  O   ACE C   1      44.295  36.331  53.437  0.00  0.00    +0.000 OA
ATOM      4  N   SER C   2      45.031  38.099  52.266  0.00  0.00    +0.000 N 
ATOM      5  H   SER C   2      45.654  38.435  51.538  0.00  0.00    +0.000 HD
ATOM      6  CA  SER C   2      44.213  39.061  52.977  0.00  0.00    +0.000 C 
ATOM      7  C   SER C   2      43.609  40.075  52.015  0.00  0.00    +0.000 C 
ATOM      8  O   SER C   2      44.105  40.260  50.893  0.00  0.00    +0.000 OA
ATOM      9  CB  SER C   2      45.111  39.761  53.996  0.00  0.00    +0.000 C 
ATOM     10  OG  SER C   2      44.399  40.670  54.813  0.00  0.00    +0.000 OA
ATOM     11  HG  SER C   2      44.874  40.762  55.644  0.00  0.00    +0.000 HD
ATOM     12  N   MET C   3      42.534  40.737  52.438  0.00  0.00    +0.000 N 
ATOM     13  H   MET C   3      42.169  40.523  53.360  0.00  0.00    +0.000 HD
ATOM     14  CA  MET C   3      41.869  41.714  51.580  0.00  0.00    +0.000 C 
ATOM     15  C   MET C   3      42.431  43.129  51.697  0.00  0.00    +0.000 C 
ATOM     16  O   MET C   3      42.574  43.664  52.796  0.00  0.00    +0.000 OA
ATOM     17  CB  MET C   3      40.374  41.785  51.926  0.00  0.00    +0.000 C 
ATOM     18  CG  MET C   3      39.571  40.537  51.615  0.00  0.00    +0.000 C 
ATOM     19  SD  MET C   3      39.578  40.161  49.852  0.00  0.00    +0.000 S 
ATOM     20  CE  MET C   3      38.626  41.495  49.159  0.00  0.00    +0.000 C 
ATOM     21  N   ALA C   4      42.724  43.738  50.550  0.00  0.00    +0.000 N 
ATOM     22  H   ALA C   4      42.466  43.280  49.682  0.00  0.00    +0.000 HD
ATOM     23  CA  ALA C   4      43.076  45.150  50.491  0.00  0.00    +0.000 C 
ATOM     24  C   ALA C   4      41.785  45.954  50.579  0.00  0.00    +0.000 C 
ATOM     25  O   ALA C   4      40.727  45.449  50.237  0.00  0.00    +0.000 OA
ATOM     26  CB  ALA C   4      43.790  45.453  49.203  0.00  0.00    +0.000 C 
ATOM     27  N   ASN C   5      41.869  47.197  51.036  0.00  0.00    +0.000 N 
ATOM     28  H   ASN C   5      42.762  47.616  51.253  0.00  0.00    +0.000 HD
ATOM     29  CA  ASN C   5      40.683  48.024  51.162  0.00  0.00    +0.000 C 
ATOM     30  C   ASN C   5      41.044  49.506  51.208  0.00  0.00    +0.000 C 
ATOM     31  O   ASN C   5      42.215  49.870  51.196  0.00  0.00    +0.000 OA
ATOM     32  CB  ASN C   5      39.855  47.606  52.379  0.00  0.00    +0.000 C 
ATOM     33  CG  ASN C   5      40.575  47.833  53.693  0.00  0.00    +0.000 C 
ATOM     34  OD1 ASN C   5      41.022  48.940  53.994  0.00  0.00    +0.000 OA
ATOM     35  ND2 ASN C   5      40.694  46.776  54.491  0.00  0.00    +0.000 N 
ATOM     36 HD21 ASN C   5      41.101  46.924  55.411  0.00  0.00    +0.000 HD
ATOM     37 HD22 ASN C   5      40.269  45.905  54.254  0.00  0.00    +0.000 HD
ATOM     38  N   ALA C   6      40.020  50.349  51.209  0.00  0.00    +0.000 N 
ATOM     39  H   ALA C   6      39.078  49.991  51.230  0.00  0.00    +0.000 HD
ATOM     40  CA  ALA C   6      40.213  51.798  51.269  0.00  0.00    +0.000 C 
ATOM     41  C   ALA C   6      39.525  52.357  52.508  0.00  0.00    +0.000 C 
ATOM     42  O   ALA C   6      39.002  53.498  52.501  0.00  0.00    +0.000 OA
ATOM     43  CB  ALA C   6      39.681  52.452  50.022  0.00  0.00    +0.000 C 
ATOM     44  N   GLY C   7      39.548  51.570  53.577  0.00  0.00    +0.000 N 
ATOM     45  H   GLY C   7      40.019  50.673  53.527  0.00  0.00    +0.000 HD
ATOM     46  CA  GLY C   7      38.923  51.936  54.835  0.00  0.00    +0.000 C 
ATOM     47  C   GLY C   7      37.937  50.867  55.250  0.00  0.00    +0.000 C 
ATOM     48  O   GLY C   7      37.729  49.897  54.522  0.00  0.00    +0.000 OA
ATOM     49  N   PRO C   8      37.332  51.020  56.419  0.00  0.00    +0.000 N 
ATOM     50  CA  PRO C   8      36.376  50.030  56.907  0.00  0.00    +0.000 C 
ATOM     51  C   PRO C   8      35.243  49.780  55.919  0.00  0.00    +0.000 C 
ATOM     52  O   PRO C   8      34.715  50.695  55.285  0.00  0.00    +0.000 OA
ATOM     53  CB  PRO C   8      35.856  50.662  58.201  0.00  0.00    +0.000 C 
ATOM     54  CG  PRO C   8      36.939  51.571  58.625  0.00  0.00    +0.000 C 
ATOM     55  CD  PRO C   8      37.498  52.140  57.362  0.00  0.00    +0.000 C 
ATOM     56  N   NME C   9      34.918  48.502  55.773  0.00  0.00    +0.000 N 
ATOM     57  H   NME C   9      35.449  47.817  56.285  0.00  0.00    +0.000 HD
ATOM     58  C   NME C   9      33.817  48.044  54.935  0.00  0.00    +0.000 C 
TER 
REMARK  Name = /home/xianyang/aimnet2_score_pipelines/work/L1234-fixed-receptor-eint-20260921/L1/P62937/prepared.pdb
REMARK                            x       y       z     vdW  Elec       q    Type
REMARK                         _______ _______ _______ _____ _____    ______ ____
ATOM      1  CH3 ACE D   1      36.015  44.620  46.599  0.00  0.00    +0.000 C 
ATOM      2  C   ACE D   1      36.616  43.324  46.093  0.00  0.00    +0.000 C 
ATOM      3  O   ACE D   1      36.165  42.225  46.447  0.00  0.00    +0.000 OA
ATOM      4  N   SER D   2      37.652  43.453  45.280  0.00  0.00    +0.000 N 
ATOM      5  H   SER D   2      37.899  44.372  44.951  0.00  0.00    +0.000 HD
ATOM      6  CA  SER D   2      38.341  42.299  44.744  0.00  0.00    +0.000 C 
ATOM      7  C   SER D   2      39.838  42.314  44.999  0.00  0.00    +0.000 C 
ATOM      8  O   SER D   2      40.491  41.294  44.835  0.00  0.00    +0.000 OA
ATOM      9  CB  SER D   2      38.091  42.178  43.249  0.00  0.00    +0.000 C 
ATOM     10  OG  SER D   2      38.556  43.310  42.550  0.00  0.00    +0.000 OA
ATOM     11  HG  SER D   2      39.505  43.202  42.432  0.00  0.00    +0.000 HD
ATOM     12  N   GLN D   3      40.402  43.456  45.377  0.00  0.00    +0.000 N 
ATOM     13  H   GLN D   3      39.833  44.249  45.620  0.00  0.00    +0.000 HD
ATOM     14  CA  GLN D   3      41.845  43.520  45.563  0.00  0.00    +0.000 C 
ATOM     15  C   GLN D   3      42.262  42.759  46.811  0.00  0.00    +0.000 C 
ATOM     16  O   GLN D   3      41.581  42.787  47.828  0.00  0.00    +0.000 OA
ATOM     17  CB  GLN D   3      42.326  44.964  45.610  0.00  0.00    +0.000 C 
ATOM     18  CG  GLN D   3      42.243  45.651  44.268  0.00  0.00    +0.000 C 
ATOM     19  CD  GLN D   3      43.018  46.953  44.221  0.00  0.00    +0.000 C 
ATOM     20  OE1 GLN D   3      44.127  47.035  44.749  0.00  0.00    +0.000 OA
ATOM     21  NE2 GLN D   3      42.456  47.964  43.556  0.00  0.00    +0.000 N 
ATOM     22 HE21 GLN D   3      42.951  48.843  43.587  0.00  0.00    +0.000 HD
ATOM     23 HE22 GLN D   3      41.510  47.869  43.193  0.00  0.00    +0.000 HD
ATOM     24  N   PHE D   4      43.393  42.077  46.706  0.00  0.00    +0.000 N 
ATOM     25  H   PHE D   4      43.927  42.136  45.845  0.00  0.00    +0.000 HD
ATOM     26  CA  PHE D   4      43.907  41.223  47.763  0.00  0.00    +0.000 C 
ATOM     27  C   PHE D   4      45.422  41.351  47.800  0.00  0.00    +0.000 C 
ATOM     28  O   PHE D   4      46.036  41.880  46.883  0.00  0.00    +0.000 OA
ATOM     29  CB  PHE D   4      43.556  39.763  47.427  0.00  0.00    +0.000 C 
ATOM     30  CG  PHE D   4      44.180  39.293  46.148  0.00  0.00    +0.000 A 
ATOM     31  CD1 PHE D   4      43.554  39.494  44.926  0.00  0.00    +0.000 A 
ATOM     32  CD2 PHE D   4      45.442  38.728  46.156  0.00  0.00    +0.000 A 
ATOM     33  CE1 PHE D   4      44.160  39.105  43.746  0.00  0.00    +0.000 A 
ATOM     34  CE2 PHE D   4      46.048  38.338  44.984  0.00  0.00    +0.000 A 
ATOM     35  CZ  PHE D   4      45.409  38.523  43.777  0.00  0.00    +0.000 A 
ATOM     36  N   PHE D   5      46.045  40.810  48.838  0.00  0.00    +0.000 N 
ATOM     37  H   PHE D   5      45.517  40.394  49.601  0.00  0.00    +0.000 HD
ATOM     38  CA  PHE D   5      47.493  40.786  48.870  0.00  0.00    +0.000 C 
ATOM     39  C   PHE D   5      47.956  39.490  49.524  0.00  0.00    +0.000 C 
ATOM     40  O   PHE D   5      47.222  38.883  50.301  0.00  0.00    +0.000 OA
ATOM     41  CB  PHE D   5      48.090  42.038  49.527  0.00  0.00    +0.000 C 
ATOM     42  CG  PHE D   5      47.678  42.261  50.957  0.00  0.00    +0.000 A 
ATOM     43  CD1 PHE D   5      46.472  42.873  51.258  0.00  0.00    +0.000 A 
ATOM     44  CD2 PHE D   5      48.507  41.888  52.004  0.00  0.00    +0.000 A 
ATOM     45  CE1 PHE D   5      46.099  43.080  52.574  0.00  0.00    +0.000 A 
ATOM     46  CE2 PHE D   5      48.131  42.097  53.321  0.00  0.00    +0.000 A 
ATOM     47  CZ  PHE D   5      46.931  42.689  53.603  0.00  0.00    +0.000 A 
ATOM     48  N   ILE D   6      49.132  39.036  49.106  0.00  0.00    +0.000 N 
ATOM     49  H   ILE D   6      49.638  39.587  48.419  0.00  0.00    +0.000 HD
ATOM     50  CA  ILE D   6      49.776  37.855  49.659  0.00  0.00    +0.000 C 
ATOM     51  C   ILE D   6      50.970  38.374  50.448  0.00  0.00    +0.000 C 
ATOM     52  O   ILE D   6      51.819  39.057  49.892  0.00  0.00    +0.000 OA
ATOM     53  CB  ILE D   6      50.269  36.916  48.546  0.00  0.00    +0.000 C 
ATOM     54  CG1 ILE D   6      49.141  36.590  47.553  0.00  0.00    +0.000 C 
ATOM     55  CG2 ILE D   6      50.807  35.639  49.148  0.00  0.00    +0.000 C 
ATOM     56  CD1 ILE D   6      49.617  35.955  46.246  0.00  0.00    +0.000 C 
ATOM     57  N   CYS D   7      51.035  38.047  51.730  0.00  0.00    +0.000 N 
ATOM     58  H   CYS D   7      50.309  37.489  52.148  0.00  0.00    +0.000 HD
ATOM     59  CA  CYS D   7      52.139  38.494  52.563  0.00  0.00    +0.000 C 
ATOM     60  C   CYS D   7      53.341  37.614  52.372  0.00  0.00    +0.000 C 
ATOM     61  O   CYS D   7      53.208  36.399  52.197  0.00  0.00    +0.000 OA
ATOM     62  CB  CYS D   7      51.762  38.417  54.025  0.00  0.00    +0.000 C 
ATOM     63  SG  CYS D   7      50.380  39.466  54.455  0.00  0.00    +0.000 S 
ATOM     64  HG  CYS D   7      50.814  39.849  55.669  0.00  0.00    +0.000 HD
ATOM     65  N   THR D   8      54.518  38.218  52.416  0.00  0.00    +0.000 N 
ATOM     66  H   THR D   8      54.569  39.233  52.457  0.00  0.00    +0.000 HD
ATOM     67  CA  THR D   8      55.759  37.449  52.372  0.00  0.00    +0.000 C 
ATOM     68  C   THR D   8      56.509  37.578  53.697  0.00  0.00    +0.000 C 
ATOM     69  O   THR D   8      57.674  37.180  53.799  0.00  0.00    +0.000 OA
ATOM     70  CB  THR D   8      56.647  37.869  51.209  0.00  0.00    +0.000 C 
ATOM     71  OG1 THR D   8      56.918  39.278  51.268  0.00  0.00    +0.000 OA
ATOM     72  HG1 THR D   8      57.376  39.441  52.096  0.00  0.00    +0.000 HD
ATOM     73  CG2 THR D   8      55.934  37.673  49.880  0.00  0.00    +0.000 C 
ATOM     74  N   ALA D   9      55.846  38.132  54.702  0.00  0.00    +0.000 N 
ATOM     75  H   ALA D   9      54.894  38.436  54.566  0.00  0.00    +0.000 HD
ATOM     76  CA  ALA D   9      56.410  38.258  56.040  0.00  0.00    +0.000 C 
ATOM     77  C   ALA D   9      55.267  38.401  57.043  0.00  0.00    +0.000 C 
ATOM     78  O   ALA D   9      54.114  38.579  56.649  0.00  0.00    +0.000 OA
ATOM     79  CB  ALA D   9      57.332  39.469  56.112  0.00  0.00    +0.000 C 
ATOM     80  N   LYS D  10      55.579  38.315  58.333  0.00  0.00    +0.000 N 
ATOM     81  H   LYS D  10      56.551  38.218  58.583  0.00  0.00    +0.000 HD
ATOM     82  CA  LYS D  10      54.594  38.605  59.359  0.00  0.00    +0.000 C 
ATOM     83  C   LYS D  10      54.325  40.103  59.346  0.00  0.00    +0.000 C 
ATOM     84  O   LYS D  10      55.266  40.897  59.325  0.00  0.00    +0.000 OA
ATOM     85  CB  LYS D  10      55.088  38.183  60.736  0.00  0.00    +0.000 C 
ATOM     86  CG  LYS D  10      54.078  38.487  61.818  0.00  0.00    +0.000 C 
ATOM     87  CD  LYS D  10      54.251  37.620  63.047  0.00  0.00    +0.000 C 
ATOM     88  CE  LYS D  10      55.205  38.239  64.020  0.00  0.00    +0.000 C 
ATOM     89  NZ  LYS D  10      56.589  38.283  63.467  0.00  0.00    +0.000 N 
ATOM     90  HZ1 LYS D  10      57.195  38.703  64.164  0.00  0.00    +0.000 HD
ATOM     91  HZ2 LYS D  10      56.619  38.875  62.649  0.00  0.00    +0.000 HD
ATOM     92  HZ3 LYS D  10      56.929  37.357  63.248  0.00  0.00    +0.000 HD
ATOM     93  N   THR D  11      53.050  40.495  59.369  0.00  0.00    +0.000 N 
ATOM     94  H   THR D  11      52.315  39.809  59.280  0.00  0.00    +0.000 HD
ATOM     95  CA  THR D  11      52.691  41.917  59.261  0.00  0.00    +0.000 C 
ATOM     96  C   THR D  11      51.639  42.279  60.299  0.00  0.00    +0.000 C 
ATOM     97  O   THR D  11      50.475  42.537  59.978  0.00  0.00    +0.000 OA
ATOM     98  CB  THR D  11      52.171  42.223  57.853  0.00  0.00    +0.000 C 
ATOM     99  OG1 THR D  11      51.072  41.352  57.542  0.00  0.00    +0.000 OA
ATOM    100  HG1 THR D  11      50.384  41.547  58.193  0.00  0.00    +0.000 HD
ATOM    101  CG2 THR D  11      53.216  41.898  56.796  0.00  0.00    +0.000 C 
ATOM    102  N   GLU D  12      52.065  42.309  61.556  0.00  0.00    +0.000 N 
ATOM    103  H   GLU D  12      53.021  42.068  61.761  0.00  0.00    +0.000 HD
ATOM    104  CA  GLU D  12      51.169  42.553  62.687  0.00  0.00    +0.000 C 
ATOM    105  C   GLU D  12      50.323  43.816  62.616  0.00  0.00    +0.000 C 
ATOM    106  O   GLU D  12      49.178  43.813  63.060  0.00  0.00    +0.000 OA
ATOM    107  CB  GLU D  12      51.983  42.641  63.981  0.00  0.00    +0.000 C 
ATOM    108  CG  GLU D  12      52.801  41.420  64.338  0.00  0.00    +0.000 C 
ATOM    109  CD  GLU D  12      53.510  41.624  65.661  0.00  0.00    +0.000 C 
ATOM    110  OE1 GLU D  12      52.816  41.956  66.652  0.00  0.00    +0.000 OA
ATOM    111  OE2 GLU D  12      54.754  41.484  65.705  0.00  0.00    +0.000 OA
ATOM    112  N   TRP D  13      50.885  44.904  62.102  0.00  0.00    +0.000 N 
ATOM    113  H   TRP D  13      51.845  44.859  61.802  0.00  0.00    +0.000 HD
ATOM    114  CA  TRP D  13      50.165  46.183  62.071  0.00  0.00    +0.000 C 
ATOM    115  C   TRP D  13      48.845  46.086  61.305  0.00  0.00    +0.000 C 
ATOM    116  O   TRP D  13      47.923  46.842  61.555  0.00  0.00    +0.000 OA
ATOM    117  CB  TRP D  13      51.047  47.307  61.480  0.00  0.00    +0.000 C 
ATOM    118  CG  TRP D  13      50.510  48.683  61.753  0.00  0.00    +0.000 A 
ATOM    119  CD1 TRP D  13      50.721  49.439  62.874  0.00  0.00    +0.000 A 
ATOM    120  CD2 TRP D  13      49.678  49.472  60.895  0.00  0.00    +0.000 A 
ATOM    121  NE1 TRP D  13      50.054  50.637  62.772  0.00  0.00    +0.000 N 
ATOM    122  HE1 TRP D  13      50.113  51.386  63.449  0.00  0.00    +0.000 HD
ATOM    123  CE2 TRP D  13      49.407  50.685  61.564  0.00  0.00    +0.000 A 
ATOM    124  CE3 TRP D  13      49.111  49.270  59.633  0.00  0.00    +0.000 A 
ATOM    125  CZ2 TRP D  13      48.611  51.691  61.007  0.00  0.00    +0.000 A 
ATOM    126  CZ3 TRP D  13      48.320  50.267  59.087  0.00  0.00    +0.000 A 
ATOM    127  CH2 TRP D  13      48.078  51.460  59.773  0.00  0.00    +0.000 A 
ATOM    128  N   LEU D  14      48.762  45.143  60.372  0.00  0.00    +0.000 N 
ATOM    129  H   LEU D  14      49.499  44.452  60.305  0.00  0.00    +0.000 HD
ATOM    130  CA  LEU D  14      47.578  44.974  59.545  0.00  0.00    +0.000 C 
ATOM    131  C   LEU D  14      46.440  44.260  60.252  0.00  0.00    +0.000 C 
ATOM    132  O   LEU D  14      45.309  44.306  59.783  0.00  0.00    +0.000 OA
ATOM    133  CB  LEU D  14      47.946  44.219  58.262  0.00  0.00    +0.000 C 
ATOM    134  CG  LEU D  14      49.053  44.856  57.420  0.00  0.00    +0.000 C 
ATOM    135  CD1 LEU D  14      49.287  44.064  56.150  0.00  0.00    +0.000 C 
ATOM    136  CD2 LEU D  14      48.717  46.285  57.068  0.00  0.00    +0.000 C 
ATOM    137  N   ASP D  15      46.725  43.595  61.371  0.00  0.00    +0.000 N 
ATOM    138  H   ASP D  15      47.668  43.571  61.744  0.00  0.00    +0.000 HD
ATOM    139  CA  ASP D  15      45.673  42.901  62.111  0.00  0.00    +0.000 C 
ATOM    140  C   ASP D  15      44.578  43.881  62.535  0.00  0.00    +0.000 C 
ATOM    141  O   ASP D  15      44.860  44.978  63.020  0.00  0.00    +0.000 OA
ATOM    142  CB  ASP D  15      46.243  42.206  63.341  0.00  0.00    +0.000 C 
ATOM    143  CG  ASP D  15      47.152  41.064  62.992  0.00  0.00    +0.000 C 
ATOM    144  OD1 ASP D  15      47.893  40.605  63.889  0.00  0.00    +0.000 OA
ATOM    145  OD2 ASP D  15      47.192  40.549  61.853  0.00  0.00    +0.000 OA
ATOM    146  N   GLY D  16      43.323  43.482  62.344  0.00  0.00    +0.000 N 
ATOM    147  H   GLY D  16      43.165  42.563  61.957  0.00  0.00    +0.000 HD
ATOM    148  CA  GLY D  16      42.182  44.311  62.701  0.00  0.00    +0.000 C 
ATOM    149  C   GLY D  16      41.818  45.371  61.668  0.00  0.00    +0.000 C 
ATOM    150  O   GLY D  16      40.853  46.122  61.853  0.00  0.00    +0.000 OA
ATOM    151  N   LYS D  17      42.575  45.440  60.576  0.00  0.00    +0.000 N 
ATOM    152  H   LYS D  17      43.414  44.868  60.539  0.00  0.00    +0.000 HD
ATOM    153  CA  LYS D  17      42.327  46.414  59.512  0.00  0.00    +0.000 C 
ATOM    154  C   LYS D  17      42.033  45.742  58.167  0.00  0.00    +0.000 C 
ATOM    155  O   LYS D  17      41.336  46.311  57.322  0.00  0.00    +0.000 OA
ATOM    156  CB  LYS D  17      43.526  47.351  59.353  0.00  0.00    +0.000 C 
ATOM    157  CG  LYS D  17      43.950  48.013  60.647  0.00  0.00    +0.000 C 
ATOM    158  CD  LYS D  17      45.207  48.849  60.468  0.00  0.00    +0.000 C 
ATOM    159  CE  LYS D  17      45.694  49.443  61.785  0.00  0.00    +0.000 C 
ATOM    160  NZ  LYS D  17      46.178  48.431  62.759  0.00  0.00    +0.000 N 
ATOM    161  HZ1 LYS D  17      45.420  47.903  63.173  0.00  0.00    +0.000 HD
ATOM    162  HZ2 LYS D  17      46.760  48.837  63.473  0.00  0.00    +0.000 HD
ATOM    163  HZ3 LYS D  17      46.737  47.736  62.276  0.00  0.00    +0.000 HD
ATOM    164  N   HIS D  18      42.587  44.543  57.983  0.00  0.00    +0.000 N 
ATOM    165  H   HIS D  18      43.189  44.167  58.702  0.00  0.00    +0.000 HD
ATOM    166  CA  HIS D  18      42.418  43.766  56.755  0.00  0.00    +0.000 C 
ATOM    167  C   HIS D  18      41.923  42.374  57.097  0.00  0.00    +0.000 C 
ATOM    168  O   HIS D  18      42.419  41.757  58.033  0.00  0.00    +0.000 OA
ATOM    169  CB  HIS D  18      43.747  43.692  55.997  0.00  0.00    +0.000 C 
ATOM    170  CG  HIS D  18      44.252  45.031  55.561  0.00  0.00    +0.000 A 
ATOM    171  ND1 HIS D  18      43.849  45.623  54.388  0.00  0.00    +0.000 N 
ATOM    172  HD1 HIS D  18      43.231  45.184  53.712  0.00  0.00    +0.000 HD
ATOM    173  CD2 HIS D  18      45.100  45.908  56.157  0.00  0.00    +0.000 A 
ATOM    174  CE1 HIS D  18      44.423  46.810  54.278  0.00  0.00    +0.000 A 
ATOM    175  NE2 HIS D  18      45.198  47.001  55.335  0.00  0.00    +0.000 NA
ATOM    176  N   VAL D  19      40.955  41.870  56.337  0.00  0.00    +0.000 N 
ATOM    177  H   VAL D  19      40.641  42.387  55.531  0.00  0.00    +0.000 HD
ATOM    178  CA  VAL D  19      40.387  40.558  56.599  0.00  0.00    +0.000 C 
ATOM    179  C   VAL D  19      41.233  39.444  55.973  0.00  0.00    +0.000 C 
ATOM    180  O   VAL D  19      41.373  39.371  54.750  0.00  0.00    +0.000 OA
ATOM    181  CB  VAL D  19      38.940  40.448  56.073  0.00  0.00    +0.000 C 
ATOM    182  CG1 VAL D  19      38.394  39.020  56.271  0.00  0.00    +0.000 C 
ATOM    183  CG2 VAL D  19      38.049  41.487  56.758  0.00  0.00    +0.000 C 
ATOM    184  N   NME D  20      41.800  38.595  56.827  0.00  0.00    +0.000 N 
ATOM    185  H   NME D  20      41.708  38.773  57.815  0.00  0.00    +0.000 HD
ATOM    186  C   NME D  20      42.591  37.455  56.396  0.00  0.00    +0.000 C 
TER 
REMARK  Name = /home/xianyang/aimnet2_score_pipelines/work/L1234-fixed-receptor-eint-20260921/L1/P62937/prepared.pdb
REMARK                            x       y       z     vdW  Elec       q    Type
REMARK                         _______ _______ _______ _____ _____    ______ ____
ATOM      1  CH3 ACE E   1      59.167  44.644  42.804  0.00  0.00    +0.000 C 
ATOM      2  C   ACE E   1      60.176  45.719  43.170  0.00  0.00    +0.000 C 
ATOM      3  O   ACE E   1      61.332  45.673  42.763  0.00  0.00    +0.000 OA
ATOM      4  N   SER E   2      59.730  46.693  43.950  0.00  0.00    +0.000 N 
ATOM      5  H   SER E   2      58.768  46.678  44.272  0.00  0.00    +0.000 HD
ATOM      6  CA  SER E   2      60.582  47.812  44.343  0.00  0.00    +0.000 C 
ATOM      7  C   SER E   2      59.993  48.501  45.572  0.00  0.00    +0.000 C 
ATOM      8  O   SER E   2      58.886  48.185  45.977  0.00  0.00    +0.000 OA
ATOM      9  CB  SER E   2      60.696  48.800  43.181  0.00  0.00    +0.000 C 
ATOM     10  OG  SER E   2      59.435  49.356  42.857  0.00  0.00    +0.000 OA
ATOM     11  HG  SER E   2      59.510  50.316  42.910  0.00  0.00    +0.000 HD
ATOM     12  N   ARG E   3      60.733  49.439  46.163  0.00  0.00    +0.000 N 
ATOM     13  H   ARG E   3      61.642  49.647  45.778  0.00  0.00    +0.000 HD
ATOM     14  CA  ARG E   3      60.276  50.173  47.352  0.00  0.00    +0.000 C 
ATOM     15  C   ARG E   3      58.865  50.703  47.224  0.00  0.00    +0.000 C 
ATOM     16  O   ARG E   3      58.026  50.518  48.104  0.00  0.00    +0.000 OA
ATOM     17  CB  ARG E   3      61.162  51.396  47.593  0.00  0.00    +0.000 C 
ATOM     18  CG  ARG E   3      62.452  51.135  48.283  0.00  0.00    +0.000 C 
ATOM     19  CD  ARG E   3      63.023  52.398  48.922  0.00  0.00    +0.000 C 
ATOM     20  NE  ARG E   3      64.307  52.156  49.571  0.00  0.00    +0.000 N 
ATOM     21  HE  ARG E   3      64.827  51.341  49.301  0.00  0.00    +0.000 HD
ATOM     22  CZ  ARG E   3      64.825  52.924  50.523  0.00  0.00    +0.000 C 
ATOM     23  NH1 ARG E   3      65.999  52.615  51.051  0.00  0.00    +0.000 N 
ATOM     24 HH11 ARG E   3      66.412  53.308  51.671  0.00  0.00    +0.000 HD
ATOM     25 HH12 ARG E   3      66.581  51.909  50.656  0.00  0.00    +0.000 HD
ATOM     26  NH2 ARG E   3      64.171  54.000  50.954  0.00  0.00    +0.000 N 
ATOM     27 HH21 ARG E   3      64.699  54.674  51.505  0.00  0.00    +0.000 HD
ATOM     28 HH22 ARG E   3      63.336  54.304  50.495  0.00  0.00    +0.000 HD
ATOM     29  N   ASN E   4      58.646  51.425  46.133  0.00  0.00    +0.000 N 
ATOM     30  H   ASN E   4      59.417  51.573  45.496  0.00  0.00    +0.000 HD
ATOM     31  CA  ASN E   4      57.364  52.028  45.811  0.00  0.00    +0.000 C 
ATOM     32  C   ASN E   4      56.323  51.005  45.372  0.00  0.00    +0.000 C 
ATOM     33  O   ASN E   4      55.131  51.312  45.311  0.00  0.00    +0.000 OA
ATOM     34  CB  ASN E   4      57.571  53.043  44.693  0.00  0.00    +0.000 C 
ATOM     35  CG  ASN E   4      58.447  52.503  43.580  0.00  0.00    +0.000 C 
ATOM     36  OD1 ASN E   4      59.648  52.278  43.765  0.00  0.00    +0.000 OA
ATOM     37  ND2 ASN E   4      57.852  52.285  42.420  0.00  0.00    +0.000 N 
ATOM     38 HD21 ASN E   4      56.870  52.465  42.311  0.00  0.00    +0.000 HD
ATOM     39 HD22 ASN E   4      58.415  51.978  41.646  0.00  0.00    +0.000 HD
ATOM     40  N   NME E   5      56.778  49.797  45.054  0.00  0.00    +0.000 N 
ATOM     41  H   NME E   5      57.751  49.565  45.202  0.00  0.00    +0.000 HD
ATOM     42  C   NME E   5      55.881  48.728  44.644  0.00  0.00    +0.000 C 
TER 
REMARK  Name = /home/xianyang/aimnet2_score_pipelines/work/L1234-fixed-receptor-eint-20260921/L1/P62937/prepared.pdb
REMARK                            x       y       z     vdW  Elec       q    Type
REMARK                         _______ _______ _______ _____ _____    ______ ____
ATOM      1  CH3 ACE F   1      51.318  66.168  50.428  0.00  0.00    +0.000 C 
ATOM      2  C   ACE F   1      50.895  64.717  50.533  0.00  0.00    +0.000 C 
ATOM      3  O   ACE F   1      51.606  63.821  50.085  0.00  0.00    +0.000 OA
ATOM      4  N   ALA F   2      49.727  64.496  51.124  0.00  0.00    +0.000 N 
ATOM      5  H   ALA F   2      49.179  65.287  51.420  0.00  0.00    +0.000 HD
ATOM      6  CA  ALA F   2      49.095  63.184  51.125  0.00  0.00    +0.000 C 
ATOM      7  C   ALA F   2      48.464  63.009  49.763  0.00  0.00    +0.000 C 
ATOM      8  O   ALA F   2      48.156  63.987  49.101  0.00  0.00    +0.000 OA
ATOM      9  CB  ALA F   2      48.034  63.094  52.185  0.00  0.00    +0.000 C 
ATOM     10  N   ASN F   3      48.246  61.772  49.336  0.00  0.00    +0.000 N 
ATOM     11  H   ASN F   3      48.428  60.970  49.922  0.00  0.00    +0.000 HD
ATOM     12  CA  ASN F   3      47.610  61.559  48.033  0.00  0.00    +0.000 C 
ATOM     13  C   ASN F   3      47.011  60.165  47.901  0.00  0.00    +0.000 C 
ATOM     14  O   ASN F   3      47.175  59.327  48.787  0.00  0.00    +0.000 OA
ATOM     15  CB  ASN F   3      48.604  61.841  46.898  0.00  0.00    +0.000 C 
ATOM     16  CG  ASN F   3      49.768  60.878  46.873  0.00  0.00    +0.000 C 
ATOM     17  OD1 ASN F   3      49.591  59.666  46.786  0.00  0.00    +0.000 OA
ATOM     18  ND2 ASN F   3      50.987  61.420  46.926  0.00  0.00    +0.000 N 
ATOM     19 HD21 ASN F   3      51.798  60.821  46.826  0.00  0.00    +0.000 HD
ATOM     20 HD22 ASN F   3      51.087  62.415  46.986  0.00  0.00    +0.000 HD
ATOM     21  N   ALA F   4      46.306  59.923  46.798  0.00  0.00    +0.000 N 
ATOM     22  H   ALA F   4      46.199  60.645  46.104  0.00  0.00    +0.000 HD
ATOM     23  CA  ALA F   4      45.704  58.615  46.543  0.00  0.00    +0.000 C 
ATOM     24  C   ALA F   4      46.251  58.022  45.245  0.00  0.00    +0.000 C 
ATOM     25  O   ALA F   4      45.519  57.383  44.478  0.00  0.00    +0.000 OA
ATOM     26  CB  ALA F   4      44.196  58.725  46.488  0.00  0.00    +0.000 C 
ATOM     27  N   GLY F   5      47.537  58.233  45.015  0.00  0.00    +0.000 N 
ATOM     28  H   GLY F   5      48.066  58.799  45.670  0.00  0.00    +0.000 HD
ATOM     29  CA  GLY F   5      48.211  57.751  43.828  0.00  0.00    +0.000 C 
ATOM     30  C   GLY F   5      48.869  58.892  43.091  0.00  0.00    +0.000 C 
ATOM     31  O   GLY F   5      48.697  60.059  43.460  0.00  0.00    +0.000 OA
ATOM     32  N   PRO F   6      49.616  58.575  42.045  0.00  0.00    +0.000 N 
ATOM     33  CA  PRO F   6      50.305  59.614  41.279  0.00  0.00    +0.000 C 
ATOM     34  C   PRO F   6      49.354  60.704  40.786  0.00  0.00    +0.000 C 
ATOM     35  O   PRO F   6      48.251  60.421  40.309  0.00  0.00    +0.000 OA
ATOM     36  CB  PRO F   6      50.934  58.840  40.112  0.00  0.00    +0.000 C 
ATOM     37  CG  PRO F   6      51.049  57.431  40.619  0.00  0.00    +0.000 C 
ATOM     38  CD  PRO F   6      49.850  57.230  41.499  0.00  0.00    +0.000 C 
ATOM     39  N   ASN F   7      49.794  61.952  40.924  0.00  0.00    +0.000 N 
ATOM     40  H   ASN F   7      50.711  62.101  41.314  0.00  0.00    +0.000 HD
ATOM     41  CA  ASN F   7      49.060  63.111  40.440  0.00  0.00    +0.000 C 
ATOM     42  C   ASN F   7      47.621  63.239  40.950  0.00  0.00    +0.000 C 
ATOM     43  O   ASN F   7      46.691  63.520  40.182  0.00  0.00    +0.000 OA
ATOM     44  CB  ASN F   7      49.095  63.111  38.917  0.00  0.00    +0.000 C 
ATOM     45  CG  ASN F   7      50.479  62.961  38.387  0.00  0.00    +0.000 C 
ATOM     46  OD1 ASN F   7      51.349  63.785  38.673  0.00  0.00    +0.000 OA
ATOM     47  ND2 ASN F   7      50.724  61.892  37.635  0.00  0.00    +0.000 N 
ATOM     48 HD21 ASN F   7      49.980  61.253  37.422  0.00  0.00    +0.000 HD
ATOM     49 HD22 ASN F   7      51.651  61.809  37.259  0.00  0.00    +0.000 HD
ATOM     50  N   NME F   8      47.440  63.065  42.258  0.00  0.00    +0.000 N 
ATOM     51  H   NME F   8      48.208  62.721  42.813  0.00  0.00    +0.000 HD
ATOM     52  C   NME F   8      46.117  63.195  42.862  0.00  0.00    +0.000 C 
TER 
REMARK  Name = /home/xianyang/aimnet2_score_pipelines/work/L1234-fixed-receptor-eint-20260921/L1/P62937/prepared.pdb
REMARK                            x       y       z     vdW  Elec       q    Type
REMARK                         _______ _______ _______ _____ _____    ______ ____
ATOM      1  CH3 ACE G   1      60.606  59.108  56.727  0.00  0.00    +0.000 C 
ATOM      2  C   ACE G   1      61.058  58.924  55.278  0.00  0.00    +0.000 C 
ATOM      3  O   ACE G   1      60.296  59.151  54.343  0.00  0.00    +0.000 OA
ATOM      4  N   GLU G   2      62.295  58.472  55.107  0.00  0.00    +0.000 N 
ATOM      5  H   GLU G   2      62.888  58.360  55.913  0.00  0.00    +0.000 HD
ATOM      6  CA  GLU G   2      62.908  58.311  53.797  0.00  0.00    +0.000 C 
ATOM      7  C   GLU G   2      62.135  57.424  52.824  0.00  0.00    +0.000 C 
ATOM      8  O   GLU G   2      62.187  57.645  51.620  0.00  0.00    +0.000 OA
ATOM      9  CB  GLU G   2      64.333  57.783  53.981  0.00  0.00    +0.000 C 
ATOM     10  CG  GLU G   2      65.123  57.614  52.702  0.00  0.00    +0.000 C 
ATOM     11  CD  GLU G   2      66.394  56.810  52.924  0.00  0.00    +0.000 C 
ATOM     12  OE1 GLU G   2      67.107  57.090  53.914  0.00  0.00    +0.000 OA
ATOM     13  OE2 GLU G   2      66.680  55.901  52.114  0.00  0.00    +0.000 OA
ATOM     14  N   TRP G   3      61.412  56.432  53.329  0.00  0.00    +0.000 N 
ATOM     15  H   TRP G   3      61.378  56.320  54.329  0.00  0.00    +0.000 HD
ATOM     16  CA  TRP G   3      60.662  55.523  52.456  0.00  0.00    +0.000 C 
ATOM     17  C   TRP G   3      59.633  56.255  51.589  0.00  0.00    +0.000 C 
ATOM     18  O   TRP G   3      59.252  55.774  50.511  0.00  0.00    +0.000 OA
ATOM     19  CB  TRP G   3      59.964  54.464  53.305  0.00  0.00    +0.000 C 
ATOM     20  CG  TRP G   3      59.629  53.201  52.591  0.00  0.00    +0.000 A 
ATOM     21  CD1 TRP G   3      58.427  52.862  52.045  0.00  0.00    +0.000 A 
ATOM     22  CD2 TRP G   3      60.501  52.084  52.359  0.00  0.00    +0.000 A 
ATOM     23  NE1 TRP G   3      58.497  51.607  51.488  0.00  0.00    +0.000 N 
ATOM     24  HE1 TRP G   3      57.754  51.164  50.962  0.00  0.00    +0.000 HD
ATOM     25  CE2 TRP G   3      59.757  51.105  51.673  0.00  0.00    +0.000 A 
ATOM     26  CE3 TRP G   3      61.835  51.809  52.673  0.00  0.00    +0.000 A 
ATOM     27  CZ2 TRP G   3      60.303  49.876  51.289  0.00  0.00    +0.000 A 
ATOM     28  CZ3 TRP G   3      62.380  50.586  52.288  0.00  0.00    +0.000 A 
ATOM     29  CH2 TRP G   3      61.612  49.639  51.606  0.00  0.00    +0.000 A 
ATOM     30  N   LEU G   4      59.184  57.420  52.058  0.00  0.00    +0.000 N 
ATOM     31  H   LEU G   4      59.621  57.826  52.878  0.00  0.00    +0.000 HD
ATOM     32  CA  LEU G   4      58.177  58.204  51.357  0.00  0.00    +0.000 C 
ATOM     33  C   LEU G   4      58.723  59.042  50.211  0.00  0.00    +0.000 C 
ATOM     34  O   LEU G   4      57.952  59.587  49.433  0.00  0.00    +0.000 OA
ATOM     35  CB  LEU G   4      57.443  59.122  52.333  0.00  0.00    +0.000 C 
ATOM     36  CG  LEU G   4      56.828  58.411  53.538  0.00  0.00    +0.000 C 
ATOM     37  CD1 LEU G   4      56.104  59.408  54.443  0.00  0.00    +0.000 C 
ATOM     38  CD2 LEU G   4      55.886  57.283  53.106  0.00  0.00    +0.000 C 
ATOM     39  N   ASP G   5      60.042  59.141  50.115  0.00  0.00    +0.000 N 
ATOM     40  H   ASP G   5      60.640  58.666  50.781  0.00  0.00    +0.000 HD
ATOM     41  CA  ASP G   5      60.681  59.908  49.062  0.00  0.00    +0.000 C 
ATOM     42  C   ASP G   5      60.254  59.390  47.703  0.00  0.00    +0.000 C 
ATOM     43  O   ASP G   5      60.219  58.178  47.478  0.00  0.00    +0.000 OA
ATOM     44  CB  ASP G   5      62.203  59.829  49.184  0.00  0.00    +0.000 C 
ATOM     45  CG  ASP G   5      62.730  60.598  50.361  0.00  0.00    +0.000 C 
ATOM     46  OD1 ASP G   5      63.930  60.433  50.705  0.00  0.00    +0.000 OA
ATOM     47  OD2 ASP G   5      62.020  61.407  51.004  0.00  0.00    +0.000 OA
ATOM     48  N   GLY G   6      59.889  60.315  46.822  0.00  0.00    +0.000 N 
ATOM     49  H   GLY G   6      59.932  61.283  47.104  0.00  0.00    +0.000 HD
ATOM     50  CA  GLY G   6      59.480  59.989  45.472  0.00  0.00    +0.000 C 
ATOM     51  C   GLY G   6      58.027  59.594  45.304  0.00  0.00    +0.000 C 
ATOM     52  O   GLY G   6      57.598  59.321  44.184  0.00  0.00    +0.000 OA
ATOM     53  N   LYS G   7      57.284  59.556  46.408  0.00  0.00    +0.000 N 
ATOM     54  H   LYS G   7      57.765  59.658  47.298  0.00  0.00    +0.000 HD
ATOM     55  CA  LYS G   7      55.865  59.219  46.403  0.00  0.00    +0.000 C 
ATOM     56  C   LYS G   7      55.013  60.410  46.849  0.00  0.00    +0.000 C 
ATOM     57  O   LYS G   7      53.894  60.593  46.367  0.00  0.00    +0.000 OA
ATOM     58  CB  LYS G   7      55.599  58.017  47.310  0.00  0.00    +0.000 C 
ATOM     59  CG  LYS G   7      54.149  57.559  47.326  0.00  0.00    +0.000 C 
ATOM     60  CD  LYS G   7      54.003  56.256  48.121  0.00  0.00    +0.000 C 
ATOM     61  CE  LYS G   7      52.548  55.846  48.264  0.00  0.00    +0.000 C 
ATOM     62  NZ  LYS G   7      51.867  55.610  46.945  0.00  0.00    +0.000 N 
ATOM     63  HZ1 LYS G   7      52.349  54.893  46.421  0.00  0.00    +0.000 HD
ATOM     64  HZ2 LYS G   7      50.903  55.343  47.092  0.00  0.00    +0.000 HD
ATOM     65  HZ3 LYS G   7      51.879  56.476  46.418  0.00  0.00    +0.000 HD
ATOM     66  N   HIS G   8      55.563  61.234  47.739  0.00  0.00    +0.000 N 
ATOM     67  H   HIS G   8      56.486  61.024  48.094  0.00  0.00    +0.000 HD
ATOM     68  CA  HIS G   8      54.880  62.396  48.279  0.00  0.00    +0.000 C 
ATOM     69  C   HIS G   8      55.704  63.641  48.035  0.00  0.00    +0.000 C 
ATOM     70  O   HIS G   8      56.913  63.621  48.230  0.00  0.00    +0.000 OA
ATOM     71  CB  HIS G   8      54.660  62.203  49.774  0.00  0.00    +0.000 C 
ATOM     72  CG  HIS G   8      53.793  61.031  50.086  0.00  0.00    +0.000 A 
ATOM     73  ND1 HIS G   8      52.419  61.112  50.068  0.00  0.00    +0.000 N 
ATOM     74  HD1 HIS G   8      51.901  61.980  49.947  0.00  0.00    +0.000 HD
ATOM     75  CD2 HIS G   8      54.096  59.747  50.387  0.00  0.00    +0.000 A 
ATOM     76  CE1 HIS G   8      51.915  59.921  50.338  0.00  0.00    +0.000 A 
ATOM     77  NE2 HIS G   8      52.909  59.073  50.526  0.00  0.00    +0.000 NA
ATOM     78  N   NME G   9      55.043  64.710  47.608  0.00  0.00    +0.000 N 
ATOM     79  H   NME G   9      54.045  64.647  47.488  0.00  0.00    +0.000 HD
ATOM     80  C   NME G   9      55.708  65.977  47.310  0.00  0.00    +0.000 C 
TER 
