REMARK  Name = /data/user_data/xianyang/t3-aimnet-affinity-balanced/L4/P24863/pocket.pdb
REMARK                            x       y       z     vdW  Elec       q    Type
REMARK                         _______ _______ _______ _____ _____    ______ ____
ATOM      1  N   LEU A   1      12.448  -4.396  -2.601  0.00  0.00    +0.000 N 
ATOM      2  CA  LEU A   1      11.830  -3.361  -3.408  0.00  0.00    +0.000 C 
ATOM      3  C   LEU A   1      11.991  -2.004  -2.739  0.00  0.00    +0.000 C 
ATOM      4  O   LEU A   1      12.110  -1.900  -1.516  0.00  0.00    +0.000 OA
ATOM      5  CB  LEU A   1      10.349  -3.661  -3.628  0.00  0.00    +0.000 C 
ATOM      6  CG  LEU A   1      10.006  -5.005  -4.259  0.00  0.00    +0.000 C 
ATOM      7  CD2 LEU A   1       8.498  -5.192  -4.313  0.00  0.00    +0.000 C 
ATOM      8  CD1 LEU A   1      10.619  -5.122  -5.641  0.00  0.00    +0.000 C 
ATOM      9  N   ARG A   2      11.989  -0.966  -3.560  0.00  0.00    +0.000 N 
ATOM     10  CA  ARG A   2      11.997   0.390  -3.027  0.00  0.00    +0.000 C 
ATOM     11  C   ARG A   2      10.689   0.691  -2.310  0.00  0.00    +0.000 C 
ATOM     12  O   ARG A   2       9.641   0.115  -2.621  0.00  0.00    +0.000 OA
ATOM     13  CB  ARG A   2      12.235   1.403  -4.145  0.00  0.00    +0.000 C 
ATOM     14  CG  ARG A   2      13.694   1.480  -4.594  0.00  0.00    +0.000 C 
ATOM     15  CD  ARG A   2      13.883   2.368  -5.809  0.00  0.00    +0.000 C 
ATOM     16  NE  ARG A   2      13.258   3.677  -5.689  0.00  0.00    +0.000 N 
ATOM     17  CZ  ARG A   2      13.829   4.747  -5.128  0.00  0.00    +0.000 C 
ATOM     18  NH2 ARG A   2      15.050   4.671  -4.627  0.00  0.00    +0.000 N 
ATOM     19  NH1 ARG A   2      13.164   5.903  -5.080  0.00  0.00    +0.000 N 
ATOM     20  N   GLN A   3      10.757   1.624  -1.367  0.00  0.00    +0.000 N 
ATOM     21  CA  GLN A   3       9.586   1.916  -0.550  0.00  0.00    +0.000 C 
ATOM     22  C   GLN A   3       8.416   2.418  -1.389  0.00  0.00    +0.000 C 
ATOM     23  O   GLN A   3       7.262   2.120  -1.081  0.00  0.00    +0.000 OA
ATOM     24  CB  GLN A   3       9.940   2.924   0.537  0.00  0.00    +0.000 C 
ATOM     25  CG  GLN A   3       8.781   3.245   1.475  0.00  0.00    +0.000 C 
ATOM     26  CD  GLN A   3       8.284   2.027   2.224  0.00  0.00    +0.000 C 
ATOM     27  OE1 GLN A   3       9.079   1.223   2.717  0.00  0.00    +0.000 OA
ATOM     28  NE2 GLN A   3       6.965   1.880   2.309  0.00  0.00    +0.000 N 
ATOM     29  N   GLN A   4       8.675   3.167  -2.441  0.00  0.00    +0.000 N 
ATOM     30  CA  GLN A   4       7.583   3.651  -3.270  0.00  0.00    +0.000 C 
ATOM     31  C   GLN A   4       6.849   2.502  -3.947  0.00  0.00    +0.000 C 
ATOM     32  O   GLN A   4       5.633   2.563  -4.134  0.00  0.00    +0.000 OA
ATOM     33  CB  GLN A   4       8.091   4.645  -4.313  0.00  0.00    +0.000 C 
ATOM     34  CG  GLN A   4       6.992   5.214  -5.197  0.00  0.00    +0.000 C 
ATOM     35  CD  GLN A   4       7.449   6.386  -6.031  0.00  0.00    +0.000 C 
ATOM     36  OE1 GLN A   4       7.849   7.415  -5.497  0.00  0.00    +0.000 OA
ATOM     37  NE2 GLN A   4       7.380   6.239  -7.350  0.00  0.00    +0.000 N 
ATOM     38  H   LEU A   1      12.333  -5.299  -3.060  0.00  0.00    +0.000 HD
ATOM     39  H   LEU A   1      12.004  -4.422  -1.683  0.00  0.00    +0.000 HD
ATOM     40  H   LEU A   1      13.442  -4.194  -2.492  0.00  0.00    +0.000 HD
ATOM     41  H   ARG A   2      11.982  -1.111  -4.534  0.00  0.00    +0.000 HD
ATOM     42  H   ARG A   2      12.347   3.782  -6.048  0.00  0.00    +0.000 HD
ATOM     43  H   ARG A   2      15.544   3.820  -4.661  0.00  0.00    +0.000 HD
ATOM     44  H   ARG A   2      15.466   5.465  -4.220  0.00  0.00    +0.000 HD
ATOM     45  H   ARG A   2      12.255   5.964  -5.452  0.00  0.00    +0.000 HD
ATOM     46  H   ARG A   2      13.583   6.695  -4.673  0.00  0.00    +0.000 HD
ATOM     47  H   GLN A   3      11.596   2.117  -1.220  0.00  0.00    +0.000 HD
ATOM     48  H   GLN A   3       6.368   2.547   1.900  0.00  0.00    +0.000 HD
ATOM     49  H   GLN A   3       6.586   1.104   2.781  0.00  0.00    +0.000 HD
ATOM     50  H   GLN A   4       9.605   3.398  -2.665  0.00  0.00    +0.000 HD
ATOM     51  H   GLN A   4       7.665   6.972  -7.943  0.00  0.00    +0.000 HD
ATOM     52  H   GLN A   4       7.044   5.397  -7.735  0.00  0.00    +0.000 HD
TER 
REMARK  Name = /data/user_data/xianyang/t3-aimnet-affinity-balanced/L4/P24863/pocket.pdb
REMARK                            x       y       z     vdW  Elec       q    Type
REMARK                         _______ _______ _______ _____ _____    ______ ____
ATOM      1  N   TYR B   1       5.370  11.656  -0.860  0.00  0.00    +0.000 N 
ATOM      2  CA  TYR B   1       6.809  11.836  -0.713  0.00  0.00    +0.000 C 
ATOM      3  C   TYR B   1       7.298  13.142  -1.323  0.00  0.00    +0.000 C 
ATOM      4  O   TYR B   1       8.065  13.884  -0.699  0.00  0.00    +0.000 OA
ATOM      5  CB  TYR B   1       7.561  10.656  -1.336  0.00  0.00    +0.000 C 
ATOM      6  CG  TYR B   1       7.154   9.306  -0.792  0.00  0.00    +0.000 A 
ATOM      7  CD2 TYR B   1       7.192   9.038   0.568  0.00  0.00    +0.000 A 
ATOM      8  CD1 TYR B   1       6.747   8.292  -1.648  0.00  0.00    +0.000 A 
ATOM      9  CE2 TYR B   1       6.829   7.796   1.064  0.00  0.00    +0.000 A 
ATOM     10  CE1 TYR B   1       6.386   7.048  -1.160  0.00  0.00    +0.000 A 
ATOM     11  CZ  TYR B   1       6.428   6.803   0.194  0.00  0.00    +0.000 A 
ATOM     12  OH  TYR B   1       6.074   5.574   0.677  0.00  0.00    +0.000 OA
ATOM     13  N   ARG B   2       6.869  13.439  -2.544  0.00  0.00    +0.000 N 
ATOM     14  CA  ARG B   2       7.341  14.646  -3.209  0.00  0.00    +0.000 C 
ATOM     15  C   ARG B   2       6.868  15.919  -2.515  0.00  0.00    +0.000 C 
ATOM     16  O   ARG B   2       7.686  16.805  -2.246  0.00  0.00    +0.000 OA
ATOM     17  CB  ARG B   2       6.928  14.652  -4.677  0.00  0.00    +0.000 C 
ATOM     18  CG  ARG B   2       7.806  13.801  -5.575  0.00  0.00    +0.000 C 
ATOM     19  CD  ARG B   2       7.481  14.044  -7.033  0.00  0.00    +0.000 C 
ATOM     20  NE  ARG B   2       8.325  13.263  -7.924  0.00  0.00    +0.000 N 
ATOM     21  CZ  ARG B   2       8.268  13.311  -9.247  0.00  0.00    +0.000 C 
ATOM     22  NH2 ARG B   2       7.393  14.111  -9.853  0.00  0.00    +0.000 N 
ATOM     23  NH1 ARG B   2       9.084  12.555  -9.976  0.00  0.00    +0.000 N 
ATOM     24  H   TYR B   1       5.093  10.770  -0.437  0.00  0.00    +0.000 HD
ATOM     25  H   TYR B   1       5.128  11.650  -1.851  0.00  0.00    +0.000 HD
ATOM     26  H   TYR B   1       4.882  12.422  -0.395  0.00  0.00    +0.000 HD
ATOM     27  H   TYR B   1       5.802   4.899   0.087  0.00  0.00    +0.000 HD
ATOM     28  H   ARG B   2       6.232  12.843  -3.000  0.00  0.00    +0.000 HD
ATOM     29  H   ARG B   2       8.984  12.657  -7.516  0.00  0.00    +0.000 HD
ATOM     30  H   ARG B   2       7.354  14.143 -10.836  0.00  0.00    +0.000 HD
ATOM     31  H   ARG B   2       6.785  14.670  -9.318  0.00  0.00    +0.000 HD
ATOM     32  H   ARG B   2       9.041  12.591 -10.959  0.00  0.00    +0.000 HD
ATOM     33  H   ARG B   2       9.731  11.960  -9.533  0.00  0.00    +0.000 HD
TER 
REMARK  Name = /data/user_data/xianyang/t3-aimnet-affinity-balanced/L4/P24863/pocket.pdb
REMARK                            x       y       z     vdW  Elec       q    Type
REMARK                         _______ _______ _______ _____ _____    ______ ____
ATOM      1  N   LEU C   1       8.864  16.432   0.732  0.00  0.00    +0.000 N 
ATOM      2  CA  LEU C   1      10.203  16.961   0.519  0.00  0.00    +0.000 C 
ATOM      3  C   LEU C   1      10.156  18.447   0.188  0.00  0.00    +0.000 C 
ATOM      4  O   LEU C   1      10.976  19.229   0.676  0.00  0.00    +0.000 OA
ATOM      5  CB  LEU C   1      10.908  16.185  -0.593  0.00  0.00    +0.000 C 
ATOM      6  CG  LEU C   1      12.327  16.626  -0.932  0.00  0.00    +0.000 C 
ATOM      7  CD2 LEU C   1      13.234  16.505   0.291  0.00  0.00    +0.000 C 
ATOM      8  CD1 LEU C   1      12.872  15.803  -2.090  0.00  0.00    +0.000 C 
ATOM      9  H   LEU C   1       8.922  15.438   0.952  0.00  0.00    +0.000 HD
ATOM     10  H   LEU C   1       8.309  16.561  -0.114  0.00  0.00    +0.000 HD
ATOM     11  H   LEU C   1       8.423  16.926   1.507  0.00  0.00    +0.000 HD
TER 
REMARK  Name = /data/user_data/xianyang/t3-aimnet-affinity-balanced/L4/P24863/pocket.pdb
REMARK                            x       y       z     vdW  Elec       q    Type
REMARK                         _______ _______ _______ _____ _____    ______ ____
ATOM      1  N   LEU D   1      12.688  15.708   8.245  0.00  0.00    +0.000 N 
ATOM      2  CA  LEU D   1      12.398  14.770   7.168  0.00  0.00    +0.000 C 
ATOM      3  C   LEU D   1      12.396  13.315   7.631  0.00  0.00    +0.000 C 
ATOM      4  O   LEU D   1      11.494  12.560   7.255  0.00  0.00    +0.000 OA
ATOM      5  CB  LEU D   1      13.374  14.963   6.008  0.00  0.00    +0.000 C 
ATOM      6  CG  LEU D   1      13.166  14.045   4.801  0.00  0.00    +0.000 C 
ATOM      7  CD2 LEU D   1      11.757  14.200   4.242  0.00  0.00    +0.000 C 
ATOM      8  CD1 LEU D   1      14.205  14.333   3.732  0.00  0.00    +0.000 C 
ATOM      9  N   PRO D   2      13.367  12.859   8.414  0.00  0.00    +0.000 N 
ATOM     10  CA  PRO D   2      13.348  11.441   8.802  0.00  0.00    +0.000 C 
ATOM     11  C   PRO D   2      12.082  11.042   9.553  0.00  0.00    +0.000 C 
ATOM     12  O   PRO D   2      11.496   9.992   9.262  0.00  0.00    +0.000 OA
ATOM     13  CB  PRO D   2      14.593  11.312   9.691  0.00  0.00    +0.000 C 
ATOM     14  CG  PRO D   2      15.505  12.386   9.219  0.00  0.00    +0.000 C 
ATOM     15  CD  PRO D   2      14.602  13.531   8.875  0.00  0.00    +0.000 C 
ATOM     16  H   LEU D   1      12.676  16.660   7.879  0.00  0.00    +0.000 HD
ATOM     17  H   LEU D   1      13.609  15.505   8.634  0.00  0.00    +0.000 HD
ATOM     18  H   LEU D   1      11.982  15.616   8.976  0.00  0.00    +0.000 HD
TER 
REMARK  Name = /data/user_data/xianyang/t3-aimnet-affinity-balanced/L4/P24863/pocket.pdb
REMARK                            x       y       z     vdW  Elec       q    Type
REMARK                         _______ _______ _______ _____ _____    ______ ____
ATOM      1  N   TRP E   1       8.977  11.365   7.225  0.00  0.00    +0.000 N 
ATOM      2  CA  TRP E   1       9.000  10.270   6.264  0.00  0.00    +0.000 C 
ATOM      3  C   TRP E   1       8.482   8.979   6.882  0.00  0.00    +0.000 C 
ATOM      4  O   TRP E   1       7.723   8.237   6.253  0.00  0.00    +0.000 OA
ATOM      5  CB  TRP E   1      10.414  10.081   5.722  0.00  0.00    +0.000 C 
ATOM      6  CG  TRP E   1      10.544   8.931   4.777  0.00  0.00    +0.000 C 
ATOM      7  CD1 TRP E   1      10.940   7.659   5.075  0.00  0.00    +0.000 C 
ATOM      8  CD2 TRP E   1      10.266   8.939   3.378  0.00  0.00    +0.000 A 
ATOM      9  NE1 TRP E   1      10.932   6.875   3.951  0.00  0.00    +0.000 NA
ATOM     10  CE2 TRP E   1      10.520   7.636   2.891  0.00  0.00    +0.000 A 
ATOM     11  CE3 TRP E   1       9.827   9.925   2.483  0.00  0.00    +0.000 A 
ATOM     12  CZ2 TRP E   1      10.350   7.302   1.554  0.00  0.00    +0.000 A 
ATOM     13  CZ3 TRP E   1       9.662   9.593   1.157  0.00  0.00    +0.000 A 
ATOM     14  CH2 TRP E   1       9.920   8.291   0.708  0.00  0.00    +0.000 A 
ATOM     15  H   TRP E   1       9.329  12.214   6.782  0.00  0.00    +0.000 HD
ATOM     16  H   TRP E   1       9.566  11.129   8.024  0.00  0.00    +0.000 HD
ATOM     17  H   TRP E   1       8.020  11.519   7.542  0.00  0.00    +0.000 HD
TER 
REMARK  Name = /data/user_data/xianyang/t3-aimnet-affinity-balanced/L4/P24863/pocket.pdb
REMARK                            x       y       z     vdW  Elec       q    Type
REMARK                         _______ _______ _______ _____ _____    ______ ____
ATOM      1  N   ASN F   1       5.064   6.837   5.747  0.00  0.00    +0.000 N 
ATOM      2  CA  ASN F   1       4.992   5.403   5.496  0.00  0.00    +0.000 C 
ATOM      3  C   ASN F   1       3.940   4.737   6.371  0.00  0.00    +0.000 C 
ATOM      4  O   ASN F   1       3.237   3.823   5.927  0.00  0.00    +0.000 OA
ATOM      5  CB  ASN F   1       6.361   4.760   5.722  0.00  0.00    +0.000 C 
ATOM      6  CG  ASN F   1       7.350   5.102   4.626  0.00  0.00    +0.000 C 
ATOM      7  OD1 ASN F   1       6.963   5.512   3.532  0.00  0.00    +0.000 OA
ATOM      8  ND2 ASN F   1       8.630   4.927   4.908  0.00  0.00    +0.000 N 
ATOM      9  H   ASN F   1       5.776   7.252   5.146  0.00  0.00    +0.000 HD
ATOM     10  H   ASN F   1       5.307   6.999   6.724  0.00  0.00    +0.000 HD
ATOM     11  H   ASN F   1       4.159   7.263   5.546  0.00  0.00    +0.000 HD
ATOM     12  H   ASN F   1       9.316   5.134   4.232  0.00  0.00    +0.000 HD
ATOM     13  H   ASN F   1       8.897   4.590   5.794  0.00  0.00    +0.000 HD
TER 
