REMARK  Name = /data/user_data/xianyang/t3-aimnet-affinity-balanced/L1/O95271/pocket.pdb
REMARK                            x       y       z     vdW  Elec       q    Type
REMARK                         _______ _______ _______ _____ _____    ______ ____
ATOM      1  N   PHE A   1     -20.236 -19.643   6.796  0.00  0.00    +0.000 N 
ATOM      2  CA  PHE A   1     -20.664 -20.270   5.562  0.00  0.00    +0.000 C 
ATOM      3  C   PHE A   1     -21.463 -19.333   4.668  0.00  0.00    +0.000 C 
ATOM      4  O   PHE A   1     -22.113 -18.400   5.143  0.00  0.00    +0.000 OA
ATOM      5  CB  PHE A   1     -21.500 -21.531   5.896  0.00  0.00    +0.000 C 
ATOM      6  CG  PHE A   1     -20.713 -22.593   6.643  0.00  0.00    +0.000 A 
ATOM      7  CD1 PHE A   1     -19.908 -23.499   5.954  0.00  0.00    +0.000 A 
ATOM      8  CD2 PHE A   1     -20.790 -22.704   8.031  0.00  0.00    +0.000 A 
ATOM      9  CE1 PHE A   1     -19.165 -24.472   6.644  0.00  0.00    +0.000 A 
ATOM     10  CE2 PHE A   1     -20.018 -23.657   8.722  0.00  0.00    +0.000 A 
ATOM     11  CZ  PHE A   1     -19.214 -24.526   8.016  0.00  0.00    +0.000 A 
ATOM     12  N   HIS A   2     -21.395 -19.596   3.354  0.00  0.00    +0.000 N 
ATOM     13  CA  HIS A   2     -22.201 -18.877   2.387  0.00  0.00    +0.000 C 
ATOM     14  C   HIS A   2     -22.666 -19.839   1.300  0.00  0.00    +0.000 C 
ATOM     15  O   HIS A   2     -21.825 -20.558   0.714  0.00  0.00    +0.000 OA
ATOM     16  CB  HIS A   2     -21.393 -17.752   1.742  0.00  0.00    +0.000 C 
ATOM     17  CG  HIS A   2     -22.193 -16.825   0.845  0.00  0.00    +0.000 A 
ATOM     18  ND1 HIS A   2     -23.074 -15.910   1.371  0.00  0.00    +0.000 N 
ATOM     19  CD2 HIS A   2     -22.247 -16.719  -0.507  0.00  0.00    +0.000 A 
ATOM     20  CE1 HIS A   2     -23.584 -15.238   0.347  0.00  0.00    +0.000 A 
ATOM     21  NE2 HIS A   2     -23.139 -15.691  -0.804  0.00  0.00    +0.000 NA
ATOM     22  N   GLY A   3     -23.970 -19.845   1.046  0.00  0.00    +0.000 N 
ATOM     23  CA  GLY A   3     -24.527 -20.583  -0.074  0.00  0.00    +0.000 C 
ATOM     24  C   GLY A   3     -25.112 -19.597  -1.043  0.00  0.00    +0.000 C 
ATOM     25  O   GLY A   3     -25.683 -18.582  -0.634  0.00  0.00    +0.000 OA
ATOM     26  N   SER A   4     -24.940 -19.856  -2.332  0.00  0.00    +0.000 N 
ATOM     27  CA  SER A   4     -25.467 -18.995  -3.370  0.00  0.00    +0.000 C 
ATOM     28  C   SER A   4     -25.570 -19.756  -4.657  0.00  0.00    +0.000 C 
ATOM     29  O   SER A   4     -24.650 -20.487  -5.010  0.00  0.00    +0.000 OA
ATOM     30  CB  SER A   4     -24.541 -17.800  -3.618  0.00  0.00    +0.000 C 
ATOM     31  OG  SER A   4     -24.940 -17.054  -4.767  0.00  0.00    +0.000 OA
ATOM     32  N   PRO A   5     -26.615 -19.493  -5.472  0.00  0.00    +0.000 N 
ATOM     33  CA  PRO A   5     -26.642 -20.111  -6.815  0.00  0.00    +0.000 C 
ATOM     34  C   PRO A   5     -25.566 -19.548  -7.749  0.00  0.00    +0.000 C 
ATOM     35  O   PRO A   5     -25.247 -20.141  -8.787  0.00  0.00    +0.000 OA
ATOM     36  CB  PRO A   5     -28.052 -19.799  -7.327  0.00  0.00    +0.000 C 
ATOM     37  CG  PRO A   5     -28.515 -18.665  -6.560  0.00  0.00    +0.000 C 
ATOM     38  CD  PRO A   5     -27.790 -18.641  -5.233  0.00  0.00    +0.000 C 
ATOM     39  N   PHE A   6     -24.946 -18.426  -7.354  0.00  0.00    +0.000 N 
ATOM     40  CA  PHE A   6     -23.910 -17.768  -8.156  0.00  0.00    +0.000 C 
ATOM     41  C   PHE A   6     -22.547 -17.869  -7.510  0.00  0.00    +0.000 C 
ATOM     42  O   PHE A   6     -21.698 -16.984  -7.659  0.00  0.00    +0.000 OA
ATOM     43  CB  PHE A   6     -24.302 -16.315  -8.424  0.00  0.00    +0.000 C 
ATOM     44  CG  PHE A   6     -25.693 -16.190  -8.991  0.00  0.00    +0.000 A 
ATOM     45  CD1 PHE A   6     -25.996 -16.695 -10.254  0.00  0.00    +0.000 A 
ATOM     46  CD2 PHE A   6     -26.717 -15.615  -8.242  0.00  0.00    +0.000 A 
ATOM     47  CE1 PHE A   6     -27.296 -16.622 -10.757  0.00  0.00    +0.000 A 
ATOM     48  CE2 PHE A   6     -28.011 -15.528  -8.750  0.00  0.00    +0.000 A 
ATOM     49  CZ  PHE A   6     -28.294 -16.030 -10.003  0.00  0.00    +0.000 A 
ATOM     50  H   PHE A   1     -19.685 -18.812   6.582  0.00  0.00    +0.000 HD
ATOM     51  H   PHE A   1     -19.668 -20.299   7.331  0.00  0.00    +0.000 HD
ATOM     52  H   PHE A   1     -21.054 -19.377   7.344  0.00  0.00    +0.000 HD
ATOM     53  H   HIS A   2     -20.780 -20.297   3.038  0.00  0.00    +0.000 HD
ATOM     54  H   HIS A   2     -23.286 -15.779   2.323  0.00  0.00    +0.000 HD
ATOM     55  H   GLY A   3     -24.575 -19.336   1.633  0.00  0.00    +0.000 HD
ATOM     56  H   SER A   4     -24.437 -20.661  -2.592  0.00  0.00    +0.000 HD
ATOM     57  H   SER A   4     -25.835 -16.706  -4.632  0.00  0.00    +0.000 HD
ATOM     58  H   PHE A   6     -25.197 -18.028  -6.489  0.00  0.00    +0.000 HD
TER 
REMARK  Name = /data/user_data/xianyang/t3-aimnet-affinity-balanced/L1/O95271/pocket.pdb
REMARK                            x       y       z     vdW  Elec       q    Type
REMARK                         _______ _______ _______ _____ _____    ______ ____
ATOM      1  N   HIS B   1     -24.079  -7.406  -5.794  0.00  0.00    +0.000 N 
ATOM      2  CA  HIS B   1     -24.914  -8.596  -5.914  0.00  0.00    +0.000 C 
ATOM      3  C   HIS B   1     -25.488  -8.974  -4.547  0.00  0.00    +0.000 C 
ATOM      4  O   HIS B   1     -25.725 -10.158  -4.264  0.00  0.00    +0.000 OA
ATOM      5  CB  HIS B   1     -24.130  -9.737  -6.545  0.00  0.00    +0.000 C 
ATOM      6  CG  HIS B   1     -23.802  -9.514  -7.980  0.00  0.00    +0.000 C 
ATOM      7  ND1 HIS B   1     -24.785  -9.509  -8.950  0.00  0.00    +0.000 NA
ATOM      8  CD2 HIS B   1     -22.608  -9.260  -8.563  0.00  0.00    +0.000 C 
ATOM      9  CE1 HIS B   1     -24.162  -9.291 -10.097  0.00  0.00    +0.000 C 
ATOM     10  NE2 HIS B   1     -22.853  -9.124  -9.912  0.00  0.00    +0.000 NA
ATOM     11  N   ALA B   2     -25.811  -7.977  -3.716  0.00  0.00    +0.000 N 
ATOM     12  CA  ALA B   2     -26.381  -8.188  -2.387  0.00  0.00    +0.000 C 
ATOM     13  C   ALA B   2     -27.755  -8.891  -2.467  0.00  0.00    +0.000 C 
ATOM     14  O   ALA B   2     -28.447  -8.823  -3.501  0.00  0.00    +0.000 OA
ATOM     15  CB  ALA B   2     -26.582  -6.841  -1.700  0.00  0.00    +0.000 C 
ATOM     16  N   TYR B   3     -28.152  -9.501  -1.361  0.00  0.00    +0.000 N 
ATOM     17  CA  TYR B   3     -29.483 -10.099  -1.231  0.00  0.00    +0.000 C 
ATOM     18  C   TYR B   3     -30.418  -8.960  -0.803  0.00  0.00    +0.000 C 
ATOM     19  O   TYR B   3     -30.542  -8.648   0.381  0.00  0.00    +0.000 OA
ATOM     20  CB  TYR B   3     -29.398 -11.235  -0.209  0.00  0.00    +0.000 C 
ATOM     21  CG  TYR B   3     -30.704 -11.908   0.183  0.00  0.00    +0.000 A 
ATOM     22  CD1 TYR B   3     -31.848 -11.815  -0.624  0.00  0.00    +0.000 A 
ATOM     23  CD2 TYR B   3     -30.806 -12.617   1.372  0.00  0.00    +0.000 A 
ATOM     24  CE1 TYR B   3     -33.048 -12.430  -0.254  0.00  0.00    +0.000 A 
ATOM     25  CE2 TYR B   3     -31.988 -13.260   1.734  0.00  0.00    +0.000 A 
ATOM     26  CZ  TYR B   3     -33.106 -13.143   0.930  0.00  0.00    +0.000 A 
ATOM     27  OH  TYR B   3     -34.256 -13.740   1.350  0.00  0.00    +0.000 OA
ATOM     28  N   ILE B   4     -31.092  -8.335  -1.777  0.00  0.00    +0.000 N 
ATOM     29  CA  ILE B   4     -31.959  -7.183  -1.511  0.00  0.00    +0.000 C 
ATOM     30  C   ILE B   4     -33.065  -7.505  -0.536  0.00  0.00    +0.000 C 
ATOM     31  O   ILE B   4     -33.408  -6.655   0.290  0.00  0.00    +0.000 OA
ATOM     32  CB  ILE B   4     -32.485  -6.606  -2.852  0.00  0.00    +0.000 C 
ATOM     33  CG1 ILE B   4     -31.358  -5.836  -3.538  0.00  0.00    +0.000 C 
ATOM     34  CG2 ILE B   4     -33.737  -5.734  -2.702  0.00  0.00    +0.000 C 
ATOM     35  CD1 ILE B   4     -31.528  -5.771  -4.992  0.00  0.00    +0.000 C 
ATOM     36  H   HIS B   1     -23.701  -7.162  -6.710  0.00  0.00    +0.000 HD
ATOM     37  H   HIS B   1     -23.312  -7.593  -5.148  0.00  0.00    +0.000 HD
ATOM     38  H   HIS B   1     -24.640  -6.631  -5.440  0.00  0.00    +0.000 HD
ATOM     39  H   ALA B   2     -25.657  -7.052  -4.016  0.00  0.00    +0.000 HD
ATOM     40  H   TYR B   3     -27.531  -9.555  -0.599  0.00  0.00    +0.000 HD
ATOM     41  H   TYR B   3     -35.032 -13.680   0.829  0.00  0.00    +0.000 HD
ATOM     42  H   ILE B   4     -31.002  -8.660  -2.702  0.00  0.00    +0.000 HD
TER 
REMARK  Name = /data/user_data/xianyang/t3-aimnet-affinity-balanced/L1/O95271/pocket.pdb
REMARK                            x       y       z     vdW  Elec       q    Type
REMARK                         _______ _______ _______ _____ _____    ______ ____
ATOM      1  N   GLY C   1     -33.106  -9.637   1.943  0.00  0.00    +0.000 N 
ATOM      2  CA  GLY C   1     -32.682 -10.104   3.257  0.00  0.00    +0.000 C 
ATOM      3  C   GLY C   1     -33.265  -9.312   4.414  0.00  0.00    +0.000 C 
ATOM      4  O   GLY C   1     -33.644  -8.157   4.245  0.00  0.00    +0.000 OA
ATOM      5  H   GLY C   1     -32.675 -10.215   1.221  0.00  0.00    +0.000 HD
ATOM      6  H   GLY C   1     -32.818  -8.667   1.818  0.00  0.00    +0.000 HD
ATOM      7  H   GLY C   1     -34.121  -9.702   1.870  0.00  0.00    +0.000 HD
TER 
REMARK  Name = /data/user_data/xianyang/t3-aimnet-affinity-balanced/L1/O95271/pocket.pdb
REMARK                            x       y       z     vdW  Elec       q    Type
REMARK                         _______ _______ _______ _____ _____    ______ ____
ATOM      1  N   TYR D   1     -24.948 -12.097   3.076  0.00  0.00    +0.000 N 
ATOM      2  CA  TYR D   1     -25.348 -12.822   4.300  0.00  0.00    +0.000 C 
ATOM      3  C   TYR D   1     -24.556 -14.109   4.486  0.00  0.00    +0.000 C 
ATOM      4  O   TYR D   1     -24.373 -14.861   3.529  0.00  0.00    +0.000 OA
ATOM      5  CB  TYR D   1     -26.843 -13.183   4.200  0.00  0.00    +0.000 C 
ATOM      6  CG  TYR D   1     -27.790 -12.004   4.327  0.00  0.00    +0.000 A 
ATOM      7  CD1 TYR D   1     -27.903 -11.054   3.305  0.00  0.00    +0.000 A 
ATOM      8  CD2 TYR D   1     -28.563 -11.837   5.465  0.00  0.00    +0.000 A 
ATOM      9  CE1 TYR D   1     -28.722  -9.930   3.459  0.00  0.00    +0.000 A 
ATOM     10  CE2 TYR D   1     -29.420 -10.747   5.596  0.00  0.00    +0.000 A 
ATOM     11  CZ  TYR D   1     -29.441  -9.770   4.624  0.00  0.00    +0.000 A 
ATOM     12  OH  TYR D   1     -30.281  -8.684   4.754  0.00  0.00    +0.000 OA
ATOM     13  N   PHE D   2     -24.224 -14.406   5.739  0.00  0.00    +0.000 N 
ATOM     14  CA  PHE D   2     -23.439 -15.589   6.097  0.00  0.00    +0.000 C 
ATOM     15  C   PHE D   2     -24.080 -16.230   7.313  0.00  0.00    +0.000 C 
ATOM     16  O   PHE D   2     -24.718 -15.560   8.134  0.00  0.00    +0.000 OA
ATOM     17  CB  PHE D   2     -21.988 -15.161   6.469  0.00  0.00    +0.000 C 
ATOM     18  CG  PHE D   2     -21.252 -14.557   5.307  0.00  0.00    +0.000 A 
ATOM     19  CD2 PHE D   2     -21.389 -13.197   5.000  0.00  0.00    +0.000 A 
ATOM     20  CD1 PHE D   2     -20.415 -15.349   4.519  0.00  0.00    +0.000 A 
ATOM     21  CE2 PHE D   2     -20.748 -12.651   3.878  0.00  0.00    +0.000 A 
ATOM     22  CE1 PHE D   2     -19.735 -14.795   3.425  0.00  0.00    +0.000 A 
ATOM     23  CZ  PHE D   2     -19.932 -13.458   3.098  0.00  0.00    +0.000 A 
ATOM     24  N   ALA D   3     -23.799 -17.538   7.455  0.00  0.00    +0.000 N 
ATOM     25  CA  ALA D   3     -24.340 -18.288   8.581  0.00  0.00    +0.000 C 
ATOM     26  C   ALA D   3     -23.198 -18.938   9.358  0.00  0.00    +0.000 C 
ATOM     27  O   ALA D   3     -22.155 -19.312   8.769  0.00  0.00    +0.000 OA
ATOM     28  CB  ALA D   3     -25.220 -19.413   8.037  0.00  0.00    +0.000 C 
ATOM     29  N   GLU D   4     -23.397 -19.168  10.661  0.00  0.00    +0.000 N 
ATOM     30  CA  GLU D   4     -22.462 -19.957  11.430  0.00  0.00    +0.000 C 
ATOM     31  C   GLU D   4     -22.916 -21.421  11.373  0.00  0.00    +0.000 C 
ATOM     32  O   GLU D   4     -22.168 -22.287  11.816  0.00  0.00    +0.000 OA
ATOM     33  CB  GLU D   4     -22.307 -19.450  12.870  0.00  0.00    +0.000 C 
ATOM     34  CG  GLU D   4     -23.572 -19.494  13.713  0.00  0.00    +0.000 C 
ATOM     35  CD  GLU D   4     -23.432 -18.845  15.080  0.00  0.00    +0.000 C 
ATOM     36  OE1 GLU D   4     -22.407 -18.169  15.320  0.00  0.00    +0.000 OA
ATOM     37  OE2 GLU D   4     -24.349 -19.009  15.916  0.00  0.00    +0.000 OA
ATOM     38  H   TYR D   1     -25.501 -11.244   2.990  0.00  0.00    +0.000 HD
ATOM     39  H   TYR D   1     -25.109 -12.690   2.262  0.00  0.00    +0.000 HD
ATOM     40  H   TYR D   1     -23.958 -11.856   3.131  0.00  0.00    +0.000 HD
ATOM     41  H   TYR D   1     -30.295  -8.020   4.093  0.00  0.00    +0.000 HD
ATOM     42  H   PHE D   2     -24.520 -13.803   6.459  0.00  0.00    +0.000 HD
ATOM     43  H   ALA D   3     -23.225 -17.990   6.795  0.00  0.00    +0.000 HD
ATOM     44  H   GLU D   4     -24.193 -18.794  11.103  0.00  0.00    +0.000 HD
TER 
REMARK  Name = /data/user_data/xianyang/t3-aimnet-affinity-balanced/L1/O95271/pocket.pdb
REMARK                            x       y       z     vdW  Elec       q    Type
REMARK                         _______ _______ _______ _____ _____    ______ ____
ATOM      1  N   LYS E   1     -27.937 -23.704   7.377  0.00  0.00    +0.000 N 
ATOM      2  CA  LYS E   1     -28.656 -22.506   7.019  0.00  0.00    +0.000 C 
ATOM      3  C   LYS E   1     -28.159 -22.052   5.633  0.00  0.00    +0.000 C 
ATOM      4  O   LYS E   1     -28.966 -21.714   4.764  0.00  0.00    +0.000 OA
ATOM      5  CB  LYS E   1     -28.478 -21.448   8.115  0.00  0.00    +0.000 C 
ATOM      6  CG  LYS E   1     -29.233 -20.168   7.817  0.00  0.00    +0.000 C 
ATOM      7  CD  LYS E   1     -29.322 -19.305   9.100  0.00  0.00    +0.000 C 
ATOM      8  CE  LYS E   1     -30.180 -18.061   8.871  0.00  0.00    +0.000 C 
ATOM      9  NZ  LYS E   1     -30.285 -17.205  10.098  0.00  0.00    +0.000 N 
ATOM     10  N   SER E   2     -26.817 -22.066   5.417  0.00  0.00    +0.000 N 
ATOM     11  CA  SER E   2     -26.343 -21.704   4.088  0.00  0.00    +0.000 C 
ATOM     12  C   SER E   2     -26.777 -22.695   3.008  0.00  0.00    +0.000 C 
ATOM     13  O   SER E   2     -27.017 -22.290   1.874  0.00  0.00    +0.000 OA
ATOM     14  CB  SER E   2     -24.822 -21.561   4.054  0.00  0.00    +0.000 C 
ATOM     15  OG  SER E   2     -24.421 -20.390   4.764  0.00  0.00    +0.000 OA
ATOM     16  N   ASN E   3     -26.937 -23.978   3.372  0.00  0.00    +0.000 N 
ATOM     17  CA  ASN E   3     -27.446 -24.996   2.423  0.00  0.00    +0.000 C 
ATOM     18  C   ASN E   3     -28.844 -24.629   1.889  0.00  0.00    +0.000 C 
ATOM     19  O   ASN E   3     -29.178 -25.003   0.758  0.00  0.00    +0.000 OA
ATOM     20  CB  ASN E   3     -27.475 -26.353   3.105  0.00  0.00    +0.000 C 
ATOM     21  CG  ASN E   3     -28.006 -27.444   2.228  0.00  0.00    +0.000 C 
ATOM     22  OD1 ASN E   3     -27.434 -27.803   1.191  0.00  0.00    +0.000 OA
ATOM     23  ND2 ASN E   3     -29.178 -27.963   2.599  0.00  0.00    +0.000 N 
ATOM     24  H   LYS E   1     -28.058 -24.405   6.646  0.00  0.00    +0.000 HD
ATOM     25  H   LYS E   1     -28.299 -24.067   8.259  0.00  0.00    +0.000 HD
ATOM     26  H   LYS E   1     -26.946 -23.488   7.480  0.00  0.00    +0.000 HD
ATOM     27  H   LYS E   1     -30.729 -17.737  10.847  0.00  0.00    +0.000 HD
ATOM     28  H   LYS E   1     -30.845 -16.379   9.889  0.00  0.00    +0.000 HD
ATOM     29  H   LYS E   1     -29.352 -16.917  10.393  0.00  0.00    +0.000 HD
ATOM     30  H   SER E   2     -26.188 -22.312   6.133  0.00  0.00    +0.000 HD
ATOM     31  H   SER E   2     -24.818 -19.608   4.349  0.00  0.00    +0.000 HD
ATOM     32  H   ASN E   3     -26.711 -24.249   4.291  0.00  0.00    +0.000 HD
ATOM     33  H   ASN E   3     -29.587 -28.685   2.068  0.00  0.00    +0.000 HD
ATOM     34  H   ASN E   3     -29.634 -27.624   3.403  0.00  0.00    +0.000 HD
TER 
REMARK  Name = /data/user_data/xianyang/t3-aimnet-affinity-balanced/L1/O95271/pocket.pdb
REMARK                            x       y       z     vdW  Elec       q    Type
REMARK                         _______ _______ _______ _____ _____    ______ ____
ATOM      1  N   TYR F   1     -29.693 -21.910   0.699  0.00  0.00    +0.000 N 
ATOM      2  CA  TYR F   1     -29.529 -20.897  -0.334  0.00  0.00    +0.000 C 
ATOM      3  C   TYR F   1     -28.726 -21.339  -1.531  0.00  0.00    +0.000 C 
ATOM      4  O   TYR F   1     -28.578 -20.556  -2.464  0.00  0.00    +0.000 OA
ATOM      5  CB  TYR F   1     -28.910 -19.639   0.288  0.00  0.00    +0.000 C 
ATOM      6  CG  TYR F   1     -29.833 -18.953   1.254  0.00  0.00    +0.000 A 
ATOM      7  CD1 TYR F   1     -30.733 -17.978   0.819  0.00  0.00    +0.000 A 
ATOM      8  CD2 TYR F   1     -29.803 -19.257   2.613  0.00  0.00    +0.000 A 
ATOM      9  CE1 TYR F   1     -31.618 -17.372   1.706  0.00  0.00    +0.000 A 
ATOM     10  CE2 TYR F   1     -30.686 -18.656   3.509  0.00  0.00    +0.000 A 
ATOM     11  CZ  TYR F   1     -31.546 -17.671   3.055  0.00  0.00    +0.000 A 
ATOM     12  OH  TYR F   1     -32.431 -17.087   3.923  0.00  0.00    +0.000 OA
ATOM     13  H   TYR F   1     -30.105 -22.749   0.290  0.00  0.00    +0.000 HD
ATOM     14  H   TYR F   1     -30.306 -21.553   1.431  0.00  0.00    +0.000 HD
ATOM     15  H   TYR F   1     -28.783 -22.138   1.099  0.00  0.00    +0.000 HD
ATOM     16  H   TYR F   1     -33.015 -16.420   3.619  0.00  0.00    +0.000 HD
TER 
REMARK  Name = /data/user_data/xianyang/t3-aimnet-affinity-balanced/L1/O95271/pocket.pdb
REMARK                            x       y       z     vdW  Elec       q    Type
REMARK                         _______ _______ _______ _____ _____    ______ ____
ATOM      1  N   GLY G   1     -30.843 -21.069  -4.463  0.00  0.00    +0.000 N 
ATOM      2  CA  GLY G   1     -31.565 -19.799  -4.488  0.00  0.00    +0.000 C 
ATOM      3  C   GLY G   1     -32.294 -19.504  -3.207  0.00  0.00    +0.000 C 
ATOM      4  O   GLY G   1     -32.286 -20.302  -2.275  0.00  0.00    +0.000 OA
ATOM      5  N   ILE G   2     -32.964 -18.333  -3.171  0.00  0.00    +0.000 N 
ATOM      6  CA  ILE G   2     -33.765 -17.925  -2.029  0.00  0.00    +0.000 C 
ATOM      7  C   ILE G   2     -34.849 -18.972  -1.767  0.00  0.00    +0.000 C 
ATOM      8  O   ILE G   2     -35.519 -19.417  -2.694  0.00  0.00    +0.000 OA
ATOM      9  CB  ILE G   2     -34.392 -16.541  -2.306  0.00  0.00    +0.000 C 
ATOM     10  CG1 ILE G   2     -33.280 -15.480  -2.378  0.00  0.00    +0.000 C 
ATOM     11  CG2 ILE G   2     -35.411 -16.179  -1.202  0.00  0.00    +0.000 C 
ATOM     12  CD1 ILE G   2     -33.672 -14.251  -3.187  0.00  0.00    +0.000 C 
ATOM     13  H   GLY G   1     -30.372 -21.210  -5.357  0.00  0.00    +0.000 HD
ATOM     14  H   GLY G   1     -31.501 -21.831  -4.302  0.00  0.00    +0.000 HD
ATOM     15  H   GLY G   1     -30.152 -21.052  -3.713  0.00  0.00    +0.000 HD
ATOM     16  H   ILE G   2     -32.908 -17.732  -3.949  0.00  0.00    +0.000 HD
TER 
REMARK  Name = /data/user_data/xianyang/t3-aimnet-affinity-balanced/L1/O95271/pocket.pdb
REMARK                            x       y       z     vdW  Elec       q    Type
REMARK                         _______ _______ _______ _____ _____    ______ ____
ATOM      1  N   ALA H   1     -28.250 -17.729  13.965  0.00  0.00    +0.000 N 
ATOM      2  CA  ALA H   1     -27.673 -16.418  13.690  0.00  0.00    +0.000 C 
ATOM      3  C   ALA H   1     -27.472 -16.183  12.221  0.00  0.00    +0.000 C 
ATOM      4  O   ALA H   1     -27.442 -17.120  11.419  0.00  0.00    +0.000 OA
ATOM      5  CB  ALA H   1     -26.357 -16.270  14.436  0.00  0.00    +0.000 C 
ATOM      6  N   GLU H   2     -27.385 -14.902  11.849  0.00  0.00    +0.000 N 
ATOM      7  CA  GLU H   2     -26.941 -14.526  10.522  0.00  0.00    +0.000 C 
ATOM      8  C   GLU H   2     -26.081 -13.299  10.637  0.00  0.00    +0.000 C 
ATOM      9  O   GLU H   2     -26.233 -12.509  11.585  0.00  0.00    +0.000 OA
ATOM     10  CB  GLU H   2     -28.000 -14.434   9.455  0.00  0.00    +0.000 C 
ATOM     11  CG  GLU H   2     -29.099 -13.425   9.682  0.00  0.00    +0.000 C 
ATOM     12  CD  GLU H   2     -30.266 -13.681   8.744  0.00  0.00    +0.000 C 
ATOM     13  OE1 GLU H   2     -30.563 -12.813   7.897  0.00  0.00    +0.000 OA
ATOM     14  OE2 GLU H   2     -30.867 -14.774   8.830  0.00  0.00    +0.000 OA
ATOM     15  N   TYR H   3     -25.138 -13.188   9.725  0.00  0.00    +0.000 N 
ATOM     16  CA  TYR H   3     -24.115 -12.164   9.732  0.00  0.00    +0.000 C 
ATOM     17  C   TYR H   3     -24.130 -11.446   8.410  0.00  0.00    +0.000 C 
ATOM     18  O   TYR H   3     -24.124 -12.086   7.349  0.00  0.00    +0.000 OA
ATOM     19  CB  TYR H   3     -22.754 -12.837   9.943  0.00  0.00    +0.000 C 
ATOM     20  CG  TYR H   3     -22.628 -13.602  11.239  0.00  0.00    +0.000 A 
ATOM     21  CD1 TYR H   3     -23.123 -14.904  11.362  0.00  0.00    +0.000 A 
ATOM     22  CD2 TYR H   3     -22.060 -13.014  12.360  0.00  0.00    +0.000 A 
ATOM     23  CE1 TYR H   3     -23.130 -15.553  12.594  0.00  0.00    +0.000 A 
ATOM     24  CE2 TYR H   3     -21.978 -13.688  13.567  0.00  0.00    +0.000 A 
ATOM     25  CZ  TYR H   3     -22.534 -14.944  13.687  0.00  0.00    +0.000 A 
ATOM     26  OH  TYR H   3     -22.447 -15.552  14.928  0.00  0.00    +0.000 OA
ATOM     27  H   ALA H   1     -29.133 -17.824  13.463  0.00  0.00    +0.000 HD
ATOM     28  H   ALA H   1     -28.417 -17.824  14.967  0.00  0.00    +0.000 HD
ATOM     29  H   ALA H   1     -27.604 -18.456  13.658  0.00  0.00    +0.000 HD
ATOM     30  H   GLU H   2     -27.628 -14.197  12.492  0.00  0.00    +0.000 HD
ATOM     31  H   TYR H   3     -25.128 -13.844   8.991  0.00  0.00    +0.000 HD
ATOM     32  H   TYR H   3     -22.810 -16.406  15.058  0.00  0.00    +0.000 HD
TER 
