REMARK  Name = /data/user_data/xianyang/t3-aimnet-affinity-balanced/L3/Q9Y6M4/pocket.pdb
REMARK                            x       y       z     vdW  Elec       q    Type
REMARK                         _______ _______ _______ _____ _____    ______ ____
ATOM      1  N   LYS A   1      45.942 -23.192  31.251  0.00  0.00    +0.000 N 
ATOM      2  CA  LYS A   1      45.547 -23.929  30.057  0.00  0.00    +0.000 C 
ATOM      3  C   LYS A   1      44.912 -22.976  29.066  0.00  0.00    +0.000 C 
ATOM      4  O   LYS A   1      44.434 -21.906  29.430  0.00  0.00    +0.000 OA
ATOM      5  CB  LYS A   1      44.525 -25.021  30.403  0.00  0.00    +0.000 C 
ATOM      6  CG  LYS A   1      43.095 -24.509  30.595  0.00  0.00    +0.000 C 
ATOM      7  CD  LYS A   1      42.223 -25.569  31.264  0.00  0.00    +0.000 C 
ATOM      8  CE  LYS A   1      40.842 -25.029  31.603  0.00  0.00    +0.000 C 
ATOM      9  NZ  LYS A   1      40.037 -25.986  32.427  0.00  0.00    +0.000 N 
ATOM     10  N   LYS A   2      44.923 -23.325  27.800  0.00  0.00    +0.000 N 
ATOM     11  CA  LYS A   2      44.253 -22.408  26.923  0.00  0.00    +0.000 C 
ATOM     12  C   LYS A   2      42.812 -22.888  26.878  0.00  0.00    +0.000 C 
ATOM     13  O   LYS A   2      42.511 -24.088  26.929  0.00  0.00    +0.000 OA
ATOM     14  CB  LYS A   2      44.891 -22.352  25.522  0.00  0.00    +0.000 C 
ATOM     15  CG  LYS A   2      45.467 -23.598  25.110  0.00  0.00    +0.000 C 
ATOM     16  CD  LYS A   2      45.922 -23.495  23.683  0.00  0.00    +0.000 C 
ATOM     17  CE  LYS A   2      47.127 -24.384  23.416  0.00  0.00    +0.000 C 
ATOM     18  NZ  LYS A   2      48.407 -23.702  23.900  0.00  0.00    +0.000 N 
ATOM     19  N   ILE A   3      41.941 -21.899  26.776  0.00  0.00    +0.000 N 
ATOM     20  CA  ILE A   3      40.517 -22.099  26.799  0.00  0.00    +0.000 C 
ATOM     21  C   ILE A   3      39.793 -21.568  25.565  0.00  0.00    +0.000 C 
ATOM     22  O   ILE A   3      40.359 -20.861  24.730  0.00  0.00    +0.000 OA
ATOM     23  CB  ILE A   3      39.963 -21.416  28.055  0.00  0.00    +0.000 C 
ATOM     24  CG1 ILE A   3      40.257 -19.906  28.005  0.00  0.00    +0.000 C 
ATOM     25  CG2 ILE A   3      40.674 -21.982  29.290  0.00  0.00    +0.000 C 
ATOM     26  CD1 ILE A   3      39.797 -19.135  29.213  0.00  0.00    +0.000 C 
ATOM     27  N   GLY A   4      38.515 -21.904  25.479  0.00  0.00    +0.000 N 
ATOM     28  CA  GLY A   4      37.712 -21.470  24.356  0.00  0.00    +0.000 C 
ATOM     29  C   GLY A   4      38.009 -22.239  23.077  0.00  0.00    +0.000 C 
ATOM     30  O   GLY A   4      38.881 -23.120  23.023  0.00  0.00    +0.000 OA
ATOM     31  N   CYS A   5      37.265 -21.902  22.030  0.00  0.00    +0.000 N 
ATOM     32  CA  CYS A   5      37.430 -22.545  20.739  0.00  0.00    +0.000 C 
ATOM     33  C   CYS A   5      38.056 -21.556  19.762  0.00  0.00    +0.000 C 
ATOM     34  O   CYS A   5      37.924 -20.334  19.917  0.00  0.00    +0.000 OA
ATOM     35  CB  CYS A   5      36.081 -23.058  20.227  0.00  0.00    +0.000 C 
ATOM     36  SG  CYS A   5      35.597 -24.638  21.043  0.00  0.00    +0.000 S 
ATOM     37  H   LYS A   1      46.620 -22.473  30.998  0.00  0.00    +0.000 HD
ATOM     38  H   LYS A   1      46.362 -23.834  31.923  0.00  0.00    +0.000 HD
ATOM     39  H   LYS A   1      45.121 -22.753  31.667  0.00  0.00    +0.000 HD
ATOM     40  H   LYS A   1      39.894 -26.849  31.903  0.00  0.00    +0.000 HD
ATOM     41  H   LYS A   1      39.133 -25.568  32.647  0.00  0.00    +0.000 HD
ATOM     42  H   LYS A   1      40.536 -26.193  33.292  0.00  0.00    +0.000 HD
ATOM     43  H   LYS A   2      45.356 -24.149  27.479  0.00  0.00    +0.000 HD
ATOM     44  H   LYS A   2      48.533 -22.821  23.401  0.00  0.00    +0.000 HD
ATOM     45  H   LYS A   2      49.205 -24.311  23.721  0.00  0.00    +0.000 HD
ATOM     46  H   LYS A   2      48.337 -23.519  24.901  0.00  0.00    +0.000 HD
ATOM     47  H   ILE A   3      42.284 -20.981  26.680  0.00  0.00    +0.000 HD
ATOM     48  H   GLY A   4      38.107 -22.454  26.186  0.00  0.00    +0.000 HD
ATOM     49  H   CYS A   5      36.584 -21.198  22.132  0.00  0.00    +0.000 HD
ATOM     50  H   CYS A   5      36.527 -25.593  20.770  0.00  0.00    +0.000 HD
TER 
REMARK  Name = /data/user_data/xianyang/t3-aimnet-affinity-balanced/L3/Q9Y6M4/pocket.pdb
REMARK                            x       y       z     vdW  Elec       q    Type
REMARK                         _______ _______ _______ _____ _____    ______ ____
ATOM      1  N   GLU B   1      45.741 -18.575  21.643  0.00  0.00    +0.000 N 
ATOM      2  CA  GLU B   1      45.622 -17.149  21.891  0.00  0.00    +0.000 C 
ATOM      3  C   GLU B   1      44.868 -16.747  23.165  0.00  0.00    +0.000 C 
ATOM      4  O   GLU B   1      45.035 -15.641  23.676  0.00  0.00    +0.000 OA
ATOM      5  CB  GLU B   1      45.032 -16.488  20.644  0.00  0.00    +0.000 C 
ATOM      6  CG  GLU B   1      44.849 -14.993  20.734  0.00  0.00    +0.000 C 
ATOM      7  CD  GLU B   1      43.760 -14.624  21.716  0.00  0.00    +0.000 C 
ATOM      8  OE1 GLU B   1      42.635 -15.179  21.606  0.00  0.00    +0.000 OA
ATOM      9  OE2 GLU B   1      44.036 -13.787  22.605  0.00  0.00    +0.000 OA
ATOM     10  N   LEU B   2      44.040 -17.626  23.704  0.00  0.00    +0.000 N 
ATOM     11  CA  LEU B   2      43.365 -17.258  24.939  0.00  0.00    +0.000 C 
ATOM     12  C   LEU B   2      43.590 -18.365  25.953  0.00  0.00    +0.000 C 
ATOM     13  O   LEU B   2      43.347 -19.537  25.675  0.00  0.00    +0.000 OA
ATOM     14  CB  LEU B   2      41.869 -17.011  24.726  0.00  0.00    +0.000 C 
ATOM     15  CG  LEU B   2      41.308 -16.100  25.820  0.00  0.00    +0.000 C 
ATOM     16  CD1 LEU B   2      41.520 -14.620  25.482  0.00  0.00    +0.000 C 
ATOM     17  CD2 LEU B   2      39.836 -16.399  25.942  0.00  0.00    +0.000 C 
ATOM     18  H   GLU B   1      46.257 -18.727  20.776  0.00  0.00    +0.000 HD
ATOM     19  H   GLU B   1      44.810 -18.985  21.562  0.00  0.00    +0.000 HD
ATOM     20  H   GLU B   1      46.240 -19.014  22.417  0.00  0.00    +0.000 HD
ATOM     21  H   LEU B   2      43.885 -18.502  23.283  0.00  0.00    +0.000 HD
TER 
REMARK  Name = /data/user_data/xianyang/t3-aimnet-affinity-balanced/L3/Q9Y6M4/pocket.pdb
REMARK                            x       y       z     vdW  Elec       q    Type
REMARK                         _______ _______ _______ _____ _____    ______ ____
ATOM      1  N   ALA C   1      41.341 -13.947  32.462  0.00  0.00    +0.000 N 
ATOM      2  CA  ALA C   1      41.494 -14.386  31.084  0.00  0.00    +0.000 C 
ATOM      3  C   ALA C   1      42.784 -13.723  30.603  0.00  0.00    +0.000 C 
ATOM      4  O   ALA C   1      43.056 -12.565  30.931  0.00  0.00    +0.000 OA
ATOM      5  CB  ALA C   1      40.322 -13.919  30.246  0.00  0.00    +0.000 C 
ATOM      6  H   ALA C   1      40.492 -14.353  32.856  0.00  0.00    +0.000 HD
ATOM      7  H   ALA C   1      41.276 -12.929  32.489  0.00  0.00    +0.000 HD
ATOM      8  H   ALA C   1      42.148 -14.251  33.007  0.00  0.00    +0.000 HD
TER 
REMARK  Name = /data/user_data/xianyang/t3-aimnet-affinity-balanced/L3/Q9Y6M4/pocket.pdb
REMARK                            x       y       z     vdW  Elec       q    Type
REMARK                         _______ _______ _______ _____ _____    ______ ____
ATOM      1  N   LYS D   1      44.883 -12.890  27.161  0.00  0.00    +0.000 N 
ATOM      2  CA  LYS D   1      44.946 -12.871  25.709  0.00  0.00    +0.000 C 
ATOM      3  C   LYS D   1      46.430 -12.779  25.354  0.00  0.00    +0.000 C 
ATOM      4  O   LYS D   1      47.136 -11.903  25.868  0.00  0.00    +0.000 OA
ATOM      5  CB  LYS D   1      44.193 -11.646  25.167  0.00  0.00    +0.000 C 
ATOM      6  CG  LYS D   1      43.645 -11.832  23.788  0.00  0.00    +0.000 C 
ATOM      7  CD  LYS D   1      42.960 -10.623  23.213  0.00  0.00    +0.000 C 
ATOM      8  CE  LYS D   1      42.391 -10.931  21.825  0.00  0.00    +0.000 C 
ATOM      9  NZ  LYS D   1      41.672  -9.745  21.262  0.00  0.00    +0.000 N 
ATOM     10  H   LYS D   1      43.909 -12.951  27.458  0.00  0.00    +0.000 HD
ATOM     11  H   LYS D   1      45.298 -12.035  27.531  0.00  0.00    +0.000 HD
ATOM     12  H   LYS D   1      45.397 -13.697  27.513  0.00  0.00    +0.000 HD
ATOM     13  H   LYS D   1      42.323  -8.965  21.170  0.00  0.00    +0.000 HD
ATOM     14  H   LYS D   1      40.910  -9.481  21.887  0.00  0.00    +0.000 HD
ATOM     15  H   LYS D   1      41.293  -9.981  20.345  0.00  0.00    +0.000 HD
TER 
REMARK  Name = /data/user_data/xianyang/t3-aimnet-affinity-balanced/L3/Q9Y6M4/pocket.pdb
REMARK                            x       y       z     vdW  Elec       q    Type
REMARK                         _______ _______ _______ _____ _____    ______ ____
ATOM      1  N   GLU E   1      44.672  -2.636  21.303  0.00  0.00    +0.000 N 
ATOM      2  CA  GLU E   1      43.348  -3.079  21.737  0.00  0.00    +0.000 C 
ATOM      3  C   GLU E   1      43.388  -2.628  23.206  0.00  0.00    +0.000 C 
ATOM      4  O   GLU E   1      42.430  -2.074  23.739  0.00  0.00    +0.000 OA
ATOM      5  CB  GLU E   1      43.185  -4.607  21.700  0.00  0.00    +0.000 C 
ATOM      6  CG  GLU E   1      41.856  -5.042  22.327  0.00  0.00    +0.000 C 
ATOM      7  CD  GLU E   1      41.582  -6.532  22.276  0.00  0.00    +0.000 C 
ATOM      8  OE1 GLU E   1      42.497  -7.322  21.981  0.00  0.00    +0.000 OA
ATOM      9  OE2 GLU E   1      40.428  -6.912  22.551  0.00  0.00    +0.000 OA
ATOM     10  H   GLU E   1      44.803  -2.870  20.319  0.00  0.00    +0.000 HD
ATOM     11  H   GLU E   1      45.387  -3.103  21.862  0.00  0.00    +0.000 HD
ATOM     12  H   GLU E   1      44.750  -1.626  21.426  0.00  0.00    +0.000 HD
TER 
REMARK  Name = /data/user_data/xianyang/t3-aimnet-affinity-balanced/L3/Q9Y6M4/pocket.pdb
REMARK                            x       y       z     vdW  Elec       q    Type
REMARK                         _______ _______ _______ _____ _____    ______ ____
ATOM      1  N   TYR F   1      41.011  -0.104  25.316  0.00  0.00    +0.000 N 
ATOM      2  CA  TYR F   1      40.394  -0.384  26.607  0.00  0.00    +0.000 C 
ATOM      3  C   TYR F   1      40.686   0.741  27.583  0.00  0.00    +0.000 C 
ATOM      4  O   TYR F   1      39.842   1.092  28.403  0.00  0.00    +0.000 OA
ATOM      5  CB  TYR F   1      40.913  -1.690  27.186  0.00  0.00    +0.000 C 
ATOM      6  CG  TYR F   1      40.082  -2.894  26.811  0.00  0.00    +0.000 A 
ATOM      7  CD1 TYR F   1      40.644  -3.957  26.105  0.00  0.00    +0.000 A 
ATOM      8  CD2 TYR F   1      38.742  -2.988  27.196  0.00  0.00    +0.000 A 
ATOM      9  CE1 TYR F   1      39.905  -5.077  25.794  0.00  0.00    +0.000 A 
ATOM     10  CE2 TYR F   1      37.992  -4.106  26.894  0.00  0.00    +0.000 A 
ATOM     11  CZ  TYR F   1      38.582  -5.150  26.192  0.00  0.00    +0.000 A 
ATOM     12  OH  TYR F   1      37.860  -6.272  25.885  0.00  0.00    +0.000 OA
ATOM     13  H   TYR F   1      40.808  -0.866  24.670  0.00  0.00    +0.000 HD
ATOM     14  H   TYR F   1      42.021  -0.018  25.433  0.00  0.00    +0.000 HD
ATOM     15  H   TYR F   1      40.636   0.768  24.942  0.00  0.00    +0.000 HD
ATOM     16  H   TYR F   1      38.263  -6.973  25.411  0.00  0.00    +0.000 HD
TER 
REMARK  Name = /data/user_data/xianyang/t3-aimnet-affinity-balanced/L3/Q9Y6M4/pocket.pdb
REMARK                            x       y       z     vdW  Elec       q    Type
REMARK                         _______ _______ _______ _____ _____    ______ ____
ATOM      1  N   PRO G   1      34.711  -5.549  30.070  0.00  0.00    +0.000 N 
ATOM      2  CA  PRO G   1      35.616  -6.300  30.948  0.00  0.00    +0.000 C 
ATOM      3  C   PRO G   1      36.757  -5.438  31.480  0.00  0.00    +0.000 C 
ATOM      4  O   PRO G   1      37.293  -4.578  30.777  0.00  0.00    +0.000 OA
ATOM      5  CB  PRO G   1      36.109  -7.438  30.056  0.00  0.00    +0.000 C 
ATOM      6  CG  PRO G   1      36.103  -6.799  28.687  0.00  0.00    +0.000 C 
ATOM      7  CD  PRO G   1      34.773  -6.054  28.688  0.00  0.00    +0.000 C 
ATOM      8  H   PRO G   1      33.756  -5.643  30.417  0.00  0.00    +0.000 HD
ATOM      9  H   PRO G   1      34.998  -4.570  30.070  0.00  0.00    +0.000 HD
TER 
REMARK  Name = /data/user_data/xianyang/t3-aimnet-affinity-balanced/L3/Q9Y6M4/pocket.pdb
REMARK                            x       y       z     vdW  Elec       q    Type
REMARK                         _______ _______ _______ _____ _____    ______ ____
ATOM      1  N   MET H   1      47.773  -9.709  27.525  0.00  0.00    +0.000 N 
ATOM      2  CA  MET H   1      46.836  -8.783  28.123  0.00  0.00    +0.000 C 
ATOM      3  C   MET H   1      45.962  -9.591  29.084  0.00  0.00    +0.000 C 
ATOM      4  O   MET H   1      45.287 -10.530  28.672  0.00  0.00    +0.000 OA
ATOM      5  CB  MET H   1      45.967  -8.107  27.057  0.00  0.00    +0.000 C 
ATOM      6  CG  MET H   1      44.974  -7.119  27.653  0.00  0.00    +0.000 C 
ATOM      7  SD  MET H   1      44.174  -6.027  26.452  0.00  0.00    +0.000 S 
ATOM      8  CE  MET H   1      42.827  -7.103  25.868  0.00  0.00    +0.000 C 
ATOM      9  H   MET H   1      48.378  -9.208  26.874  0.00  0.00    +0.000 HD
ATOM     10  H   MET H   1      47.261 -10.435  27.023  0.00  0.00    +0.000 HD
ATOM     11  H   MET H   1      48.341 -10.137  28.256  0.00  0.00    +0.000 HD
TER 
REMARK  Name = /data/user_data/xianyang/t3-aimnet-affinity-balanced/L3/Q9Y6M4/pocket.pdb
REMARK                            x       y       z     vdW  Elec       q    Type
REMARK                         _______ _______ _______ _____ _____    ______ ____
ATOM      1  N   LEU I   1      42.904  -9.838  31.468  0.00  0.00    +0.000 N 
ATOM      2  CA  LEU I   1      41.502  -9.418  31.519  0.00  0.00    +0.000 C 
ATOM      3  C   LEU I   1      40.584 -10.084  32.518  0.00  0.00    +0.000 C 
ATOM      4  O   LEU I   1      40.869 -11.207  32.938  0.00  0.00    +0.000 OA
ATOM      5  CB  LEU I   1      40.890  -9.606  30.177  0.00  0.00    +0.000 C 
ATOM      6  CG  LEU I   1      41.098  -8.712  28.977  0.00  0.00    +0.000 C 
ATOM      7  CD1 LEU I   1      41.646  -9.436  27.790  0.00  0.00    +0.000 C 
ATOM      8  CD2 LEU I   1      39.754  -8.137  28.680  0.00  0.00    +0.000 C 
ATOM      9  N   GLU I   2      39.493  -9.409  32.912  0.00  0.00    +0.000 N 
ATOM     10  CA  GLU I   2      38.560 -10.038  33.831  0.00  0.00    +0.000 C 
ATOM     11  C   GLU I   2      38.016 -11.292  33.090  0.00  0.00    +0.000 C 
ATOM     12  O   GLU I   2      37.713 -11.222  31.893  0.00  0.00    +0.000 OA
ATOM     13  CB  GLU I   2      37.419  -9.074  34.131  0.00  0.00    +0.000 C 
ATOM     14  CG  GLU I   2      36.146  -9.700  34.576  0.00  0.00    +0.000 C 
ATOM     15  CD  GLU I   2      35.072  -8.649  34.763  0.00  0.00    +0.000 C 
ATOM     16  OE1 GLU I   2      35.157  -7.572  34.124  0.00  0.00    +0.000 OA
ATOM     17  OE2 GLU I   2      34.140  -8.911  35.542  0.00  0.00    +0.000 OA
ATOM     18  N   LEU I   3      37.893 -12.431  33.779  0.00  0.00    +0.000 N 
ATOM     19  CA  LEU I   3      37.350 -13.660  33.179  0.00  0.00    +0.000 C 
ATOM     20  C   LEU I   3      35.823 -13.540  33.124  0.00  0.00    +0.000 C 
ATOM     21  O   LEU I   3      35.183 -13.207  34.125  0.00  0.00    +0.000 OA
ATOM     22  CB  LEU I   3      37.714 -14.886  34.028  0.00  0.00    +0.000 C 
ATOM     23  CG  LEU I   3      37.208 -16.220  33.448  0.00  0.00    +0.000 C 
ATOM     24  CD1 LEU I   3      37.910 -16.493  32.123  0.00  0.00    +0.000 C 
ATOM     25  CD2 LEU I   3      37.445 -17.370  34.432  0.00  0.00    +0.000 C 
ATOM     26  N   LEU I   4      35.249 -13.799  31.958  0.00  0.00    +0.000 N 
ATOM     27  CA  LEU I   4      33.806 -13.715  31.796  0.00  0.00    +0.000 C 
ATOM     28  C   LEU I   4      33.235 -15.104  31.556  0.00  0.00    +0.000 C 
ATOM     29  O   LEU I   4      33.950 -16.103  31.682  0.00  0.00    +0.000 OA
ATOM     30  CB  LEU I   4      33.469 -12.771  30.637  0.00  0.00    +0.000 C 
ATOM     31  CG  LEU I   4      33.921 -11.326  30.869  0.00  0.00    +0.000 C 
ATOM     32  CD1 LEU I   4      33.687 -10.479  29.627  0.00  0.00    +0.000 C 
ATOM     33  CD2 LEU I   4      33.168 -10.770  32.046  0.00  0.00    +0.000 C 
ATOM     34  N   GLY I   5      31.950 -15.161  31.224  0.00  0.00    +0.000 N 
ATOM     35  CA  GLY I   5      31.306 -16.431  30.970  0.00  0.00    +0.000 C 
ATOM     36  C   GLY I   5      31.270 -16.715  29.479  0.00  0.00    +0.000 C 
ATOM     37  O   GLY I   5      32.017 -16.112  28.698  0.00  0.00    +0.000 OA
ATOM     38  N   PRO I   6      30.410 -17.653  29.053  0.00  0.00    +0.000 N 
ATOM     39  CA  PRO I   6      30.244 -18.048  27.655  0.00  0.00    +0.000 C 
ATOM     40  C   PRO I   6      29.705 -16.891  26.802  0.00  0.00    +0.000 C 
ATOM     41  O   PRO I   6      29.155 -15.912  27.321  0.00  0.00    +0.000 OA
ATOM     42  CB  PRO I   6      29.276 -19.227  27.745  0.00  0.00    +0.000 C 
ATOM     43  CG  PRO I   6      28.536 -18.981  29.010  0.00  0.00    +0.000 C 
ATOM     44  CD  PRO I   6      29.556 -18.463  29.935  0.00  0.00    +0.000 C 
ATOM     45  H   LEU I   1      43.393  -9.303  30.751  0.00  0.00    +0.000 HD
ATOM     46  H   LEU I   1      42.953 -10.832  31.244  0.00  0.00    +0.000 HD
ATOM     47  H   LEU I   1      43.342  -9.672  32.374  0.00  0.00    +0.000 HD
ATOM     48  H   GLU I   2      39.327  -8.497  32.582  0.00  0.00    +0.000 HD
ATOM     49  H   LEU I   3      38.176 -12.448  34.722  0.00  0.00    +0.000 HD
ATOM     50  H   LEU I   4      35.809 -14.052  31.189  0.00  0.00    +0.000 HD
ATOM     51  H   GLY I   5      31.430 -14.329  31.150  0.00  0.00    +0.000 HD
TER 
REMARK  Name = /data/user_data/xianyang/t3-aimnet-affinity-balanced/L3/Q9Y6M4/pocket.pdb
REMARK                            x       y       z     vdW  Elec       q    Type
REMARK                         _______ _______ _______ _____ _____    ______ ____
ATOM      1  N   ASP J   1      27.725 -19.350  22.193  0.00  0.00    +0.000 N 
ATOM      2  CA  ASP J   1      27.775 -20.595  22.967  0.00  0.00    +0.000 C 
ATOM      3  C   ASP J   1      26.390 -20.836  23.527  0.00  0.00    +0.000 C 
ATOM      4  O   ASP J   1      25.878 -21.954  23.507  0.00  0.00    +0.000 OA
ATOM      5  CB  ASP J   1      28.715 -20.515  24.178  0.00  0.00    +0.000 C 
ATOM      6  CG  ASP J   1      30.156 -20.341  23.805  0.00  0.00    +0.000 C 
ATOM      7  OD1 ASP J   1      30.560 -20.844  22.744  0.00  0.00    +0.000 OA
ATOM      8  OD2 ASP J   1      30.893 -19.717  24.599  0.00  0.00    +0.000 OA
ATOM      9  H   ASP J   1      27.087 -19.465  21.405  0.00  0.00    +0.000 HD
ATOM     10  H   ASP J   1      28.658 -19.128  21.845  0.00  0.00    +0.000 HD
ATOM     11  H   ASP J   1      27.395 -18.592  22.790  0.00  0.00    +0.000 HD
TER 
REMARK  Name = /data/user_data/xianyang/t3-aimnet-affinity-balanced/L3/Q9Y6M4/pocket.pdb
REMARK                            x       y       z     vdW  Elec       q    Type
REMARK                         _______ _______ _______ _____ _____    ______ ____
ATOM      1  N   LEU K   1      29.739 -11.628  25.737  0.00  0.00    +0.000 N 
ATOM      2  CA  LEU K   1      29.799 -12.622  26.804  0.00  0.00    +0.000 C 
ATOM      3  C   LEU K   1      29.065 -12.243  28.077  0.00  0.00    +0.000 C 
ATOM      4  O   LEU K   1      29.098 -11.083  28.485  0.00  0.00    +0.000 OA
ATOM      5  CB  LEU K   1      31.264 -12.882  27.169  0.00  0.00    +0.000 C 
ATOM      6  CG  LEU K   1      32.176 -13.721  26.271  0.00  0.00    +0.000 C 
ATOM      7  CD1 LEU K   1      31.965 -13.363  24.816  0.00  0.00    +0.000 C 
ATOM      8  CD2 LEU K   1      33.629 -13.495  26.661  0.00  0.00    +0.000 C 
ATOM      9  H   LEU K   1      30.257 -11.968  24.927  0.00  0.00    +0.000 HD
ATOM     10  H   LEU K   1      30.152 -10.754  26.063  0.00  0.00    +0.000 HD
ATOM     11  H   LEU K   1      28.766 -11.468  25.476  0.00  0.00    +0.000 HD
TER 
REMARK  Name = /data/user_data/xianyang/t3-aimnet-affinity-balanced/L3/Q9Y6M4/pocket.pdb
REMARK                            x       y       z     vdW  Elec       q    Type
REMARK                         _______ _______ _______ _____ _____    ______ ____
ATOM      1  N   ILE L   1      33.450  -7.826  24.144  0.00  0.00    +0.000 N 
ATOM      2  CA  ILE L   1      34.896  -8.069  24.128  0.00  0.00    +0.000 C 
ATOM      3  C   ILE L   1      35.524  -7.935  22.743  0.00  0.00    +0.000 C 
ATOM      4  O   ILE L   1      34.835  -7.768  21.745  0.00  0.00    +0.000 OA
ATOM      5  CB  ILE L   1      35.247  -9.475  24.607  0.00  0.00    +0.000 C 
ATOM      6  CG1 ILE L   1      34.660 -10.490  23.633  0.00  0.00    +0.000 C 
ATOM      7  CG2 ILE L   1      34.756  -9.695  26.019  0.00  0.00    +0.000 C 
ATOM      8  CD1 ILE L   1      35.083 -11.899  23.914  0.00  0.00    +0.000 C 
ATOM      9  N   ASP L   2      36.845  -8.068  22.718  0.00  0.00    +0.000 N 
ATOM     10  CA  ASP L   2      37.670  -7.983  21.516  0.00  0.00    +0.000 C 
ATOM     11  C   ASP L   2      37.470  -6.722  20.705  0.00  0.00    +0.000 C 
ATOM     12  O   ASP L   2      36.658  -6.676  19.782  0.00  0.00    +0.000 OA
ATOM     13  CB  ASP L   2      37.474  -9.184  20.589  0.00  0.00    +0.000 C 
ATOM     14  CG  ASP L   2      38.501  -9.201  19.456  0.00  0.00    +0.000 C 
ATOM     15  OD2 ASP L   2      39.214  -8.177  19.264  0.00  0.00    +0.000 OA
ATOM     16  OD1 ASP L   2      38.603 -10.230  18.752  0.00  0.00    +0.000 OA
ATOM     17  H   ILE L   1      33.261  -6.878  23.818  0.00  0.00    +0.000 HD
ATOM     18  H   ILE L   1      33.097  -7.935  25.095  0.00  0.00    +0.000 HD
ATOM     19  H   ILE L   1      32.986  -8.496  23.530  0.00  0.00    +0.000 HD
ATOM     20  H   ASP L   2      37.302  -8.236  23.573  0.00  0.00    +0.000 HD
TER 
REMARK  Name = /data/user_data/xianyang/t3-aimnet-affinity-balanced/L3/Q9Y6M4/pocket.pdb
REMARK                            x       y       z     vdW  Elec       q    Type
REMARK                         _______ _______ _______ _____ _____    ______ ____
ATOM      1  N   PRO M   1      29.543 -23.556  30.086  0.00  0.00    +0.000 N 
ATOM      2  CA  PRO M   1      30.877 -24.079  30.293  0.00  0.00    +0.000 C 
ATOM      3  C   PRO M   1      31.704 -23.111  31.102  0.00  0.00    +0.000 C 
ATOM      4  O   PRO M   1      31.496 -21.898  31.118  0.00  0.00    +0.000 OA
ATOM      5  CB  PRO M   1      31.466 -24.206  28.916  0.00  0.00    +0.000 C 
ATOM      6  CG  PRO M   1      30.337 -23.836  27.996  0.00  0.00    +0.000 C 
ATOM      7  CD  PRO M   1      29.355 -23.035  28.731  0.00  0.00    +0.000 C 
ATOM      8  N   THR M   2      32.679 -23.678  31.776  0.00  0.00    +0.000 N 
ATOM      9  CA  THR M   2      33.574 -22.865  32.555  0.00  0.00    +0.000 C 
ATOM     10  C   THR M   2      34.928 -23.488  32.312  0.00  0.00    +0.000 C 
ATOM     11  O   THR M   2      35.036 -24.667  31.956  0.00  0.00    +0.000 OA
ATOM     12  CB  THR M   2      33.276 -22.877  34.041  0.00  0.00    +0.000 C 
ATOM     13  OG1 THR M   2      31.997 -23.456  34.298  0.00  0.00    +0.000 OA
ATOM     14  CG2 THR M   2      33.264 -21.458  34.522  0.00  0.00    +0.000 C 
ATOM     15  N   PRO M   3      35.970 -22.662  32.355  0.00  0.00    +0.000 N 
ATOM     16  CA  PRO M   3      37.346 -23.140  32.156  0.00  0.00    +0.000 C 
ATOM     17  C   PRO M   3      37.879 -23.503  33.542  0.00  0.00    +0.000 C 
ATOM     18  O   PRO M   3      38.837 -24.231  33.697  0.00  0.00    +0.000 OA
ATOM     19  CB  PRO M   3      38.063 -21.953  31.535  0.00  0.00    +0.000 C 
ATOM     20  CG  PRO M   3      37.191 -20.798  31.905  0.00  0.00    +0.000 C 
ATOM     21  CD  PRO M   3      35.810 -21.261  31.954  0.00  0.00    +0.000 C 
ATOM     22  H   PRO M   1      28.869 -24.304  30.246  0.00  0.00    +0.000 HD
ATOM     23  H   PRO M   1      29.405 -22.785  30.739  0.00  0.00    +0.000 HD
ATOM     24  H   THR M   2      32.796 -24.655  31.748  0.00  0.00    +0.000 HD
ATOM     25  H   THR M   2      31.312 -22.940  33.845  0.00  0.00    +0.000 HD
TER 
