REMARK  Name = /home/xianyang/aimnet2_score_pipelines/work/L1234-fixed-receptor-eint-20260921/L1/P49759/prepared.pdb
REMARK                            x       y       z     vdW  Elec       q    Type
REMARK                         _______ _______ _______ _____ _____    ______ ____
ATOM      1  CH3 ACE A   1      35.527  26.191  11.507  0.00  0.00    +0.000 C 
ATOM      2  C   ACE A   1      35.532  25.696  10.076  0.00  0.00    +0.000 C 
ATOM      3  O   ACE A   1      36.598  25.618   9.456  0.00  0.00    +0.000 OA
ATOM      4  N   THR A   2      34.361  25.344   9.560  0.00  0.00    +0.000 N 
ATOM      5  H   THR A   2      33.522  25.498  10.100  0.00  0.00    +0.000 HD
ATOM      6  CA  THR A   2      34.221  25.090   8.114  0.00  0.00    +0.000 C 
ATOM      7  C   THR A   2      33.582  26.336   7.535  0.00  0.00    +0.000 C 
ATOM      8  O   THR A   2      32.516  26.763   8.008  0.00  0.00    +0.000 OA
ATOM      9  CB  THR A   2      33.388  23.820   7.859  0.00  0.00    +0.000 C 
ATOM     10  OG1 THR A   2      34.064  22.667   8.418  0.00  0.00    +0.000 OA
ATOM     11  HG1 THR A   2      34.216  22.853   9.350  0.00  0.00    +0.000 HD
ATOM     12  CG2 THR A   2      33.169  23.599   6.381  0.00  0.00    +0.000 C 
ATOM     13  N   LEU A   3      34.245  26.981   6.594  0.00  0.00    +0.000 N 
ATOM     14  H   LEU A   3      35.087  26.567   6.212  0.00  0.00    +0.000 HD
ATOM     15  CA  LEU A   3      33.748  28.205   5.982  0.00  0.00    +0.000 C 
ATOM     16  C   LEU A   3      32.763  27.912   4.863  0.00  0.00    +0.000 C 
ATOM     17  O   LEU A   3      31.888  28.740   4.615  0.00  0.00    +0.000 OA
ATOM     18  CB  LEU A   3      34.907  29.052   5.462  0.00  0.00    +0.000 C 
ATOM     19  CG  LEU A   3      35.944  29.442   6.527  0.00  0.00    +0.000 C 
ATOM     20  CD1 LEU A   3      37.047  30.237   5.928  0.00  0.00    +0.000 C 
ATOM     21  CD2 LEU A   3      35.313  30.139   7.742  0.00  0.00    +0.000 C 
ATOM     22  N   GLY A   4      32.932  26.805   4.160  0.00  0.00    +0.000 N 
ATOM     23  H   GLY A   4      33.703  26.187   4.376  0.00  0.00    +0.000 HD
ATOM     24  CA  GLY A   4      32.026  26.452   3.058  0.00  0.00    +0.000 C 
ATOM     25  C   GLY A   4      32.313  25.082   2.520  0.00  0.00    +0.000 C 
ATOM     26  O   GLY A   4      33.379  24.526   2.737  0.00  0.00    +0.000 OA
ATOM     27  N   GLU A   5      31.335  24.512   1.823  0.00  0.00    +0.000 N 
ATOM     28  H   GLU A   5      30.472  25.003   1.636  0.00  0.00    +0.000 HD
ATOM     29  CA  GLU A   5      31.455  23.171   1.338  0.00  0.00    +0.000 C 
ATOM     30  C   GLU A   5      30.874  23.159  -0.075  0.00  0.00    +0.000 C 
ATOM     31  O   GLU A   5      29.857  23.831  -0.338  0.00  0.00    +0.000 OA
ATOM     32  CB  GLU A   5      30.625  22.270   2.235  0.00  0.00    +0.000 C 
ATOM     33  CG  GLU A   5      30.914  20.804   2.072  0.00  0.00    +0.000 C 
ATOM     34  CD  GLU A   5      30.492  19.987   3.288  0.00  0.00    +0.000 C 
ATOM     35  OE1 GLU A   5      30.280  18.785   3.073  0.00  0.00    +0.000 OA
ATOM     36  OE2 GLU A   5      30.387  20.536   4.436  0.00  0.00    +0.000 OA
ATOM     37  N   GLY A   6      31.558  22.463  -0.975  0.00  0.00    +0.000 N 
ATOM     38  H   GLY A   6      32.327  21.877  -0.658  0.00  0.00    +0.000 HD
ATOM     39  CA  GLY A   6      31.062  22.243  -2.341  0.00  0.00    +0.000 C 
ATOM     40  C   GLY A   6      31.283  20.818  -2.781  0.00  0.00    +0.000 C 
ATOM     41  O   GLY A   6      31.760  19.982  -2.030  0.00  0.00    +0.000 OA
ATOM     42  N   ALA A   7      30.888  20.501  -4.028  0.00  0.00    +0.000 N 
ATOM     43  H   ALA A   7      30.402  21.171  -4.600  0.00  0.00    +0.000 HD
ATOM     44  CA  ALA A   7      31.169  19.176  -4.539  0.00  0.00    +0.000 C 
ATOM     45  C   ALA A   7      32.690  18.861  -4.585  0.00  0.00    +0.000 C 
ATOM     46  O   ALA A   7      33.074  17.711  -4.431  0.00  0.00    +0.000 OA
ATOM     47  CB  ALA A   7      30.533  18.996  -5.911  0.00  0.00    +0.000 C 
ATOM     48  N   PHE A   8      33.509  19.902  -4.757  0.00  0.00    +0.000 N 
ATOM     49  H   PHE A   8      33.104  20.816  -4.848  0.00  0.00    +0.000 HD
ATOM     50  CA  PHE A   8      34.995  19.775  -4.800  0.00  0.00    +0.000 C 
ATOM     51  C   PHE A   8      35.609  19.339  -3.475  0.00  0.00    +0.000 C 
ATOM     52  O   PHE A   8      36.726  18.825  -3.449  0.00  0.00    +0.000 OA
ATOM     53  CB  PHE A   8      35.673  21.082  -5.245  0.00  0.00    +0.000 C 
ATOM     54  CG  PHE A   8      35.626  22.160  -4.180  0.00  0.00    +0.000 A 
ATOM     55  CD1 PHE A   8      36.585  22.209  -3.168  0.00  0.00    +0.000 A 
ATOM     56  CD2 PHE A   8      34.572  23.057  -4.142  0.00  0.00    +0.000 A 
ATOM     57  CE1 PHE A   8      36.499  23.137  -2.163  0.00  0.00    +0.000 A 
ATOM     58  CE2 PHE A   8      34.478  24.010  -3.105  0.00  0.00    +0.000 A 
ATOM     59  CZ  PHE A   8      35.466  24.042  -2.127  0.00  0.00    +0.000 A 
ATOM     60  N   GLY A   9      34.909  19.616  -2.370  0.00  0.00    +0.000 N 
ATOM     61  H   GLY A   9      33.955  19.949  -2.431  0.00  0.00    +0.000 HD
ATOM     62  CA  GLY A   9      35.502  19.481  -1.045  0.00  0.00    +0.000 C 
ATOM     63  C   GLY A   9      35.007  20.591  -0.162  0.00  0.00    +0.000 C 
ATOM     64  O   GLY A   9      33.815  20.927  -0.172  0.00  0.00    +0.000 OA
ATOM     65  N   LYS A  10      35.929  21.173   0.604  0.00  0.00    +0.000 N 
ATOM     66  H   LYS A  10      36.904  20.904   0.493  0.00  0.00    +0.000 HD
ATOM     67  CA  LYS A  10      35.558  22.227   1.559  0.00  0.00    +0.000 C 
ATOM     68  C   LYS A  10      36.638  23.259   1.770  0.00  0.00    +0.000 C 
ATOM     69  O   LYS A  10      37.773  23.056   1.399  0.00  0.00    +0.000 OA
ATOM     70  CB  LYS A  10      35.116  21.677   2.905  0.00  0.00    +0.000 C 
ATOM     71  CG  LYS A  10      36.081  20.864   3.633  0.00  0.00    +0.000 C 
ATOM     72  CD  LYS A  10      35.371  20.245   4.897  0.00  0.00    +0.000 C 
ATOM     73  CE  LYS A  10      34.274  19.238   4.556  0.00  0.00    +0.000 C 
ATOM     74  NZ  LYS A  10      33.477  18.698   5.717  0.00  0.00    +0.000 N 
ATOM     75  HZ1 LYS A  10      34.005  18.029   6.265  0.00  0.00    +0.000 HD
ATOM     76  HZ2 LYS A  10      32.639  18.256   5.343  0.00  0.00    +0.000 HD
ATOM     77  HZ3 LYS A  10      33.128  19.449   6.303  0.00  0.00    +0.000 HD
ATOM     78  N   VAL A  11      36.246  24.381   2.344  0.00  0.00    +0.000 N 
ATOM     79  H   VAL A  11      35.267  24.465   2.608  0.00  0.00    +0.000 HD
ATOM     80  CA  VAL A  11      37.157  25.420   2.769  0.00  0.00    +0.000 C 
ATOM     81  C   VAL A  11      37.029  25.502   4.283  0.00  0.00    +0.000 C 
ATOM     82  O   VAL A  11      35.907  25.689   4.796  0.00  0.00    +0.000 OA
ATOM     83  CB  VAL A  11      36.883  26.820   2.148  0.00  0.00    +0.000 C 
ATOM     84  CG1 VAL A  11      38.007  27.763   2.552  0.00  0.00    +0.000 C 
ATOM     85  CG2 VAL A  11      36.794  26.724   0.630  0.00  0.00    +0.000 C 
ATOM     86  N   VAL A  12      38.144  25.298   4.991  0.00  0.00    +0.000 N 
ATOM     87  H   VAL A  12      39.025  25.145   4.508  0.00  0.00    +0.000 HD
ATOM     88  CA  VAL A  12      38.142  25.356   6.445  0.00  0.00    +0.000 C 
ATOM     89  C   VAL A  12      39.023  26.454   6.952  0.00  0.00    +0.000 C 
ATOM     90  O   VAL A  12      39.985  26.879   6.277  0.00  0.00    +0.000 OA
ATOM     91  CB  VAL A  12      38.580  24.012   7.076  0.00  0.00    +0.000 C 
ATOM     92  CG1 VAL A  12      37.579  22.940   6.738  0.00  0.00    +0.000 C 
ATOM     93  CG2 VAL A  12      39.998  23.631   6.671  0.00  0.00    +0.000 C 
ATOM     94  N   NME A  13      38.664  27.014   8.103  0.00  0.00    +0.000 N 
ATOM     95  H   NME A  13      37.869  26.629   8.603  0.00  0.00    +0.000 HD
ATOM     96  C   NME A  13      39.537  27.908   8.796  0.00  0.00    +0.000 C 
TER 
REMARK  Name = /home/xianyang/aimnet2_score_pipelines/work/L1234-fixed-receptor-eint-20260921/L1/P49759/prepared.pdb
REMARK                            x       y       z     vdW  Elec       q    Type
REMARK                         _______ _______ _______ _____ _____    ______ ____
ATOM      1  CH3 ACE B   1      44.577  31.884  11.227  0.00  0.00    +0.000 C 
ATOM      2  C   ACE B   1      44.754  31.903   9.710  0.00  0.00    +0.000 C 
ATOM      3  O   ACE B   1      45.147  32.920   9.130  0.00  0.00    +0.000 OA
ATOM      4  N   VAL B   2      44.430  30.775   9.080  0.00  0.00    +0.000 N 
ATOM      5  H   VAL B   2      44.017  30.020   9.606  0.00  0.00    +0.000 HD
ATOM      6  CA  VAL B   2      44.559  30.601   7.630  0.00  0.00    +0.000 C 
ATOM      7  C   VAL B   2      43.296  29.922   7.095  0.00  0.00    +0.000 C 
ATOM      8  O   VAL B   2      42.470  29.398   7.854  0.00  0.00    +0.000 OA
ATOM      9  CB  VAL B   2      45.813  29.757   7.276  0.00  0.00    +0.000 C 
ATOM     10  CG1 VAL B   2      47.073  30.459   7.752  0.00  0.00    +0.000 C 
ATOM     11  CG2 VAL B   2      45.698  28.352   7.836  0.00  0.00    +0.000 C 
ATOM     12  N   ALA B   3      43.099  29.970   5.781  0.00  0.00    +0.000 N 
ATOM     13  H   ALA B   3      43.797  30.417   5.192  0.00  0.00    +0.000 HD
ATOM     14  CA  ALA B   3      42.049  29.185   5.125  0.00  0.00    +0.000 C 
ATOM     15  C   ALA B   3      42.695  28.048   4.373  0.00  0.00    +0.000 C 
ATOM     16  O   ALA B   3      43.681  28.262   3.695  0.00  0.00    +0.000 OA
ATOM     17  CB  ALA B   3      41.295  30.064   4.152  0.00  0.00    +0.000 C 
ATOM     18  N   VAL B   4      42.128  26.865   4.481  0.00  0.00    +0.000 N 
ATOM     19  H   VAL B   4      41.315  26.761   5.080  0.00  0.00    +0.000 HD
ATOM     20  CA  VAL B   4      42.626  25.725   3.739  0.00  0.00    +0.000 C 
ATOM     21  C   VAL B   4      41.536  25.190   2.850  0.00  0.00    +0.000 C 
ATOM     22  O   VAL B   4      40.428  24.825   3.307  0.00  0.00    +0.000 OA
ATOM     23  CB  VAL B   4      43.119  24.597   4.691  0.00  0.00    +0.000 C 
ATOM     24  CG1 VAL B   4      43.833  23.503   3.898  0.00  0.00    +0.000 C 
ATOM     25  CG2 VAL B   4      44.089  25.164   5.698  0.00  0.00    +0.000 C 
ATOM     26  N   LYS B   5      41.811  25.220   1.548  0.00  0.00    +0.000 N 
ATOM     27  H   LYS B   5      42.722  25.563   1.254  0.00  0.00    +0.000 HD
ATOM     28  CA  LYS B   5      40.938  24.587   0.568  0.00  0.00    +0.000 C 
ATOM     29  C   LYS B   5      41.319  23.127   0.468  0.00  0.00    +0.000 C 
ATOM     30  O   LYS B   5      42.420  22.806   0.107  0.00  0.00    +0.000 OA
ATOM     31  CB  LYS B   5      41.037  25.254  -0.794  0.00  0.00    +0.000 C 
ATOM     32  CG  LYS B   5      39.931  24.862  -1.779  0.00  0.00    +0.000 C 
ATOM     33  CD  LYS B   5      40.152  25.364  -3.213  0.00  0.00    +0.000 C 
ATOM     34  CE  LYS B   5      38.875  25.174  -4.003  0.00  0.00    +0.000 C 
ATOM     35  NZ  LYS B   5      39.087  25.582  -5.420  0.00  0.00    +0.000 N 
ATOM     36  HZ1 LYS B   5      39.796  25.017  -5.863  0.00  0.00    +0.000 HD
ATOM     37  HZ2 LYS B   5      39.414  26.542  -5.485  0.00  0.00    +0.000 HD
ATOM     38  HZ3 LYS B   5      38.238  25.535  -5.961  0.00  0.00    +0.000 HD
ATOM     39  N   ILE B   6      40.380  22.270   0.805  0.00  0.00    +0.000 N 
ATOM     40  H   ILE B   6      39.475  22.618   1.097  0.00  0.00    +0.000 HD
ATOM     41  CA  ILE B   6      40.600  20.851   0.809  0.00  0.00    +0.000 C 
ATOM     42  C   ILE B   6      39.860  20.258  -0.388  0.00  0.00    +0.000 C 
ATOM     43  O   ILE B   6      38.627  20.188  -0.410  0.00  0.00    +0.000 OA
ATOM     44  CB  ILE B   6      40.126  20.216   2.152  0.00  0.00    +0.000 C 
ATOM     45  CG1 ILE B   6      40.852  20.879   3.328  0.00  0.00    +0.000 C 
ATOM     46  CG2 ILE B   6      40.401  18.736   2.096  0.00  0.00    +0.000 C 
ATOM     47  CD1 ILE B   6      40.329  20.405   4.664  0.00  0.00    +0.000 C 
ATOM     48  N   NME B   7      40.632  19.875  -1.390  0.00  0.00    +0.000 N 
ATOM     49  H   NME B   7      41.641  19.973  -1.308  0.00  0.00    +0.000 HD
ATOM     50  C   NME B   7      40.060  19.518  -2.691  0.00  0.00    +0.000 C 
TER 
REMARK  Name = /home/xianyang/aimnet2_score_pipelines/work/L1234-fixed-receptor-eint-20260921/L1/P49759/prepared.pdb
REMARK                            x       y       z     vdW  Elec       q    Type
REMARK                         _______ _______ _______ _____ _____    ______ ____
ATOM      1  CH3 ACE C   1      47.238  21.851  -9.617  0.00  0.00    +0.000 C 
ATOM      2  C   ACE C   1      47.578  23.103 -10.399  0.00  0.00    +0.000 C 
ATOM      3  O   ACE C   1      48.647  23.681 -10.193  0.00  0.00    +0.000 OA
ATOM      4  N   SER C   2      46.623  23.561 -11.217  0.00  0.00    +0.000 N 
ATOM      5  H   SER C   2      45.782  23.021 -11.337  0.00  0.00    +0.000 HD
ATOM      6  CA  SER C   2      46.843  24.764 -12.040  0.00  0.00    +0.000 C 
ATOM      7  C   SER C   2      46.926  26.001 -11.206  0.00  0.00    +0.000 C 
ATOM      8  O   SER C   2      47.796  26.864 -11.424  0.00  0.00    +0.000 OA
ATOM      9  CB  SER C   2      45.751  24.864 -13.116  0.00  0.00    +0.000 C 
ATOM     10  OG  SER C   2      46.158  25.860 -14.052  0.00  0.00    +0.000 OA
ATOM     11  HG  SER C   2      46.307  26.699 -13.595  0.00  0.00    +0.000 HD
ATOM     12  N   GLU C   3      46.020  26.141 -10.247  0.00  0.00    +0.000 N 
ATOM     13  H   GLU C   3      45.303  25.450 -10.118  0.00  0.00    +0.000 HD
ATOM     14  CA  GLU C   3      46.075  27.294  -9.337  0.00  0.00    +0.000 C 
ATOM     15  C   GLU C   3      47.387  27.338  -8.575  0.00  0.00    +0.000 C 
ATOM     16  O   GLU C   3      47.997  28.380  -8.382  0.00  0.00    +0.000 OA
ATOM     17  CB  GLU C   3      44.916  27.224  -8.339  0.00  0.00    +0.000 C 
ATOM     18  CG  GLU C   3      44.979  28.343  -7.341  0.00  0.00    +0.000 C 
ATOM     19  CD  GLU C   3      43.644  28.642  -6.642  0.00  0.00    +0.000 C 
ATOM     20  OE1 GLU C   3      42.940  27.702  -6.262  0.00  0.00    +0.000 OA
ATOM     21  OE2 GLU C   3      43.323  29.847  -6.418  0.00  0.00    +0.000 OA
ATOM     22  N   ILE C   4      47.810  26.199  -8.071  0.00  0.00    +0.000 N 
ATOM     23  H   ILE C   4      47.310  25.350  -8.268  0.00  0.00    +0.000 HD
ATOM     24  CA  ILE C   4      49.050  26.156  -7.361  0.00  0.00    +0.000 C 
ATOM     25  C   ILE C   4      50.211  26.669  -8.228  0.00  0.00    +0.000 C 
ATOM     26  O   ILE C   4      51.037  27.462  -7.756  0.00  0.00    +0.000 OA
ATOM     27  CB  ILE C   4      49.360  24.733  -6.832  0.00  0.00    +0.000 C 
ATOM     28  CG1 ILE C   4      48.455  24.389  -5.686  0.00  0.00    +0.000 C 
ATOM     29  CG2 ILE C   4      50.832  24.600  -6.436  0.00  0.00    +0.000 C 
ATOM     30  CD1 ILE C   4      48.300  22.886  -5.428  0.00  0.00    +0.000 C 
ATOM     31  N   NME C   5      50.326  26.213  -9.473  0.00  0.00    +0.000 N 
ATOM     32  H   NME C   5      49.629  25.570  -9.829  0.00  0.00    +0.000 HD
ATOM     33  C   NME C   5      51.369  26.729 -10.378  0.00  0.00    +0.000 C 
TER 
REMARK  Name = /home/xianyang/aimnet2_score_pipelines/work/L1234-fixed-receptor-eint-20260921/L1/P49759/prepared.pdb
REMARK                            x       y       z     vdW  Elec       q    Type
REMARK                         _______ _______ _______ _____ _____    ______ ____
ATOM      1  CH3 ACE D   1      45.423  42.662  -4.162  0.00  0.00    +0.000 C 
ATOM      2  C   ACE D   1      45.013  41.238  -4.660  0.00  0.00    +0.000 C 
ATOM      3  O   ACE D   1      43.800  40.992  -4.835  0.00  0.00    +0.000 OA
ATOM      4  N   CYS D   2      45.981  40.376  -4.957  0.00  0.00    +0.000 N 
ATOM      5  H   CYS D   2      46.926  40.621  -4.712  0.00  0.00    +0.000 HD
ATOM      6  CA  CYS D   2      45.717  38.964  -5.313  0.00  0.00    +0.000 C 
ATOM      7  C   CYS D   2      45.858  38.133  -4.032  0.00  0.00    +0.000 C 
ATOM      8  O   CYS D   2      46.708  38.431  -3.188  0.00  0.00    +0.000 OA
ATOM      9  CB  CYS D   2      46.715  38.402  -6.321  0.00  0.00    +0.000 C 
ATOM     10  SG  CYS D   2      46.707  39.256  -7.938  0.00  0.00    +0.000 S 
ATOM     11  HG  CYS D   2      47.104  40.450  -7.487  0.00  0.00    +0.000 HD
ATOM     12  N   VAL D   3      45.059  37.086  -3.938  0.00  0.00    +0.000 N 
ATOM     13  H   VAL D   3      44.331  36.929  -4.627  0.00  0.00    +0.000 HD
ATOM     14  CA  VAL D   3      45.146  36.197  -2.774  0.00  0.00    +0.000 C 
ATOM     15  C   VAL D   3      46.563  35.662  -2.623  0.00  0.00    +0.000 C 
ATOM     16  O   VAL D   3      47.278  35.350  -3.609  0.00  0.00    +0.000 OA
ATOM     17  CB  VAL D   3      44.118  35.058  -2.887  0.00  0.00    +0.000 C 
ATOM     18  CG1 VAL D   3      44.438  34.061  -3.976  0.00  0.00    +0.000 C 
ATOM     19  CG2 VAL D   3      43.929  34.410  -1.535  0.00  0.00    +0.000 C 
ATOM     20  N   GLN D   4      46.988  35.518  -1.378  0.00  0.00    +0.000 N 
ATOM     21  H   GLN D   4      46.464  35.961  -0.620  0.00  0.00    +0.000 HD
ATOM     22  CA  GLN D   4      48.289  34.932  -1.106  0.00  0.00    +0.000 C 
ATOM     23  C   GLN D   4      48.136  33.458  -0.667  0.00  0.00    +0.000 C 
ATOM     24  O   GLN D   4      47.585  33.161   0.420  0.00  0.00    +0.000 OA
ATOM     25  CB  GLN D   4      49.014  35.720  -0.047  0.00  0.00    +0.000 C 
ATOM     26  CG  GLN D   4      50.461  35.334   0.007  0.00  0.00    +0.000 C 
ATOM     27  CD  GLN D   4      51.229  36.177   1.005  0.00  0.00    +0.000 C 
ATOM     28  OE1 GLN D   4      50.802  36.320   2.154  0.00  0.00    +0.000 OA
ATOM     29  NE2 GLN D   4      52.374  36.749   0.561  0.00  0.00    +0.000 N 
ATOM     30 HE21 GLN D   4      52.676  36.633  -0.385  0.00  0.00    +0.000 HD
ATOM     31 HE22 GLN D   4      52.850  37.342   1.217  0.00  0.00    +0.000 HD
ATOM     32  N   NME D   5      48.607  32.570  -1.507  0.00  0.00    +0.000 N 
ATOM     33  H   NME D   5      48.935  32.887  -2.406  0.00  0.00    +0.000 HD
ATOM     34  C   NME D   5      48.759  31.152  -1.149  0.00  0.00    +0.000 C 
TER 
REMARK  Name = /home/xianyang/aimnet2_score_pipelines/work/L1234-fixed-receptor-eint-20260921/L1/P49759/prepared.pdb
REMARK                            x       y       z     vdW  Elec       q    Type
REMARK                         _______ _______ _______ _____ _____    ______ ____
ATOM      1  CH3 ACE E   1      45.046  18.406  -2.250  0.00  0.00    +0.000 C 
ATOM      2  C   ACE E   1      44.621  19.581  -1.335  0.00  0.00    +0.000 C 
ATOM      3  O   ACE E   1      43.511  20.079  -1.451  0.00  0.00    +0.000 OA
ATOM      4  N   CYS E   2      45.488  19.948  -0.420  0.00  0.00    +0.000 N 
ATOM      5  H   CYS E   2      46.392  19.508  -0.376  0.00  0.00    +0.000 HD
ATOM      6  CA  CYS E   2      45.182  21.045   0.508  0.00  0.00    +0.000 C 
ATOM      7  C   CYS E   2      45.960  22.272   0.097  0.00  0.00    +0.000 C 
ATOM      8  O   CYS E   2      47.194  22.235  -0.001  0.00  0.00    +0.000 OA
ATOM      9  CB  CYS E   2      45.555  20.660   1.907  0.00  0.00    +0.000 C 
ATOM     10  SG  CYS E   2      44.517  19.334   2.545  0.00  0.00    +0.000 S 
ATOM     11  HG  CYS E   2      44.998  19.330   3.793  0.00  0.00    +0.000 HD
ATOM     12  N   ILE E   3      45.255  23.369  -0.123  0.00  0.00    +0.000 N 
ATOM     13  H   ILE E   3      44.242  23.334  -0.056  0.00  0.00    +0.000 HD
ATOM     14  CA  ILE E   3      45.900  24.596  -0.468  0.00  0.00    +0.000 C 
ATOM     15  C   ILE E   3      45.644  25.613   0.633  0.00  0.00    +0.000 C 
ATOM     16  O   ILE E   3      44.473  25.910   0.957  0.00  0.00    +0.000 OA
ATOM     17  CB  ILE E   3      45.383  25.175  -1.824  0.00  0.00    +0.000 C 
ATOM     18  CG1 ILE E   3      45.446  24.107  -2.900  0.00  0.00    +0.000 C 
ATOM     19  CG2 ILE E   3      46.258  26.334  -2.236  0.00  0.00    +0.000 C 
ATOM     20  CD1 ILE E   3      44.775  24.556  -4.219  0.00  0.00    +0.000 C 
ATOM     21  N   VAL E   4      46.705  26.118   1.242  0.00  0.00    +0.000 N 
ATOM     22  H   VAL E   4      47.622  25.883   0.896  0.00  0.00    +0.000 HD
ATOM     23  CA  VAL E   4      46.617  27.009   2.391  0.00  0.00    +0.000 C 
ATOM     24  C   VAL E   4      46.780  28.455   1.938  0.00  0.00    +0.000 C 
ATOM     25  O   VAL E   4      47.758  28.780   1.222  0.00  0.00    +0.000 OA
ATOM     26  CB  VAL E   4      47.744  26.675   3.437  0.00  0.00    +0.000 C 
ATOM     27  CG1 VAL E   4      47.558  27.491   4.666  0.00  0.00    +0.000 C 
ATOM     28  CG2 VAL E   4      47.790  25.204   3.760  0.00  0.00    +0.000 C 
ATOM     29  N   PHE E   5      45.847  29.309   2.314  0.00  0.00    +0.000 N 
ATOM     30  H   PHE E   5      45.084  28.981   2.892  0.00  0.00    +0.000 HD
ATOM     31  CA  PHE E   5      45.853  30.717   1.960  0.00  0.00    +0.000 C 
ATOM     32  C   PHE E   5      45.813  31.591   3.203  0.00  0.00    +0.000 C 
ATOM     33  O   PHE E   5      45.343  31.139   4.252  0.00  0.00    +0.000 OA
ATOM     34  CB  PHE E   5      44.600  31.064   1.130  0.00  0.00    +0.000 C 
ATOM     35  CG  PHE E   5      44.456  30.308  -0.172  0.00  0.00    +0.000 A 
ATOM     36  CD1 PHE E   5      43.748  29.111  -0.251  0.00  0.00    +0.000 A 
ATOM     37  CD2 PHE E   5      44.981  30.819  -1.356  0.00  0.00    +0.000 A 
ATOM     38  CE1 PHE E   5      43.557  28.428  -1.452  0.00  0.00    +0.000 A 
ATOM     39  CE2 PHE E   5      44.781  30.141  -2.555  0.00  0.00    +0.000 A 
ATOM     40  CZ  PHE E   5      44.087  28.958  -2.605  0.00  0.00    +0.000 A 
ATOM     41  N   GLU E   6      46.170  32.843   3.069  0.00  0.00    +0.000 N 
ATOM     42  H   GLU E   6      46.534  33.145   2.169  0.00  0.00    +0.000 HD
ATOM     43  CA  GLU E   6      45.795  33.872   4.031  0.00  0.00    +0.000 C 
ATOM     44  C   GLU E   6      44.302  33.769   4.274  0.00  0.00    +0.000 C 
ATOM     45  O   GLU E   6      43.504  33.490   3.348  0.00  0.00    +0.000 OA
ATOM     46  CB  GLU E   6      46.144  35.264   3.528  0.00  0.00    +0.000 C 
ATOM     47  CG  GLU E   6      45.430  35.687   2.242  0.00  0.00    +0.000 C 
ATOM     48  CD  GLU E   6      45.809  37.065   1.764  0.00  0.00    +0.000 C 
ATOM     49  OE1 GLU E   6      46.057  37.977   2.581  0.00  0.00    +0.000 OA
ATOM     50  OE2 GLU E   6      45.767  37.265   0.527  0.00  0.00    +0.000 OA
ATOM     51  N   LEU E   7      43.886  33.982   5.502  0.00  0.00    +0.000 N 
ATOM     52  H   LEU E   7      44.539  34.251   6.222  0.00  0.00    +0.000 HD
ATOM     53  CA  LEU E   7      42.461  34.002   5.799  0.00  0.00    +0.000 C 
ATOM     54  C   LEU E   7      41.856  35.328   5.369  0.00  0.00    +0.000 C 
ATOM     55  O   LEU E   7      42.365  36.393   5.727  0.00  0.00    +0.000 OA
ATOM     56  CB  LEU E   7      42.186  33.776   7.306  0.00  0.00    +0.000 C 
ATOM     57  CG  LEU E   7      40.712  33.805   7.725  0.00  0.00    +0.000 C 
ATOM     58  CD1 LEU E   7      39.956  32.637   7.118  0.00  0.00    +0.000 C 
ATOM     59  CD2 LEU E   7      40.572  33.753   9.256  0.00  0.00    +0.000 C 
ATOM     60  N   LEU E   8      40.736  35.258   4.663  0.00  0.00    +0.000 N 
ATOM     61  H   LEU E   8      40.352  34.351   4.458  0.00  0.00    +0.000 HD
ATOM     62  CA  LEU E   8      39.984  36.430   4.230  0.00  0.00    +0.000 C 
ATOM     63  C   LEU E   8      38.594  36.312   4.797  0.00  0.00    +0.000 C 
ATOM     64  O   LEU E   8      38.212  35.337   5.467  0.00  0.00    +0.000 OA
ATOM     65  CB  LEU E   8      39.933  36.502   2.691  0.00  0.00    +0.000 C 
ATOM     66  CG  LEU E   8      41.278  36.561   2.015  0.00  0.00    +0.000 C 
ATOM     67  CD1 LEU E   8      41.112  36.326   0.495  0.00  0.00    +0.000 C 
ATOM     68  CD2 LEU E   8      41.956  37.883   2.332  0.00  0.00    +0.000 C 
ATOM     69  N   GLY E   9      37.811  37.380   4.576  0.00  0.00    +0.000 N 
ATOM     70  H   GLY E   9      38.160  38.113   3.975  0.00  0.00    +0.000 HD
ATOM     71  CA  GLY E   9      36.436  37.453   4.999  0.00  0.00    +0.000 C 
ATOM     72  C   GLY E   9      35.466  36.955   3.947  0.00  0.00    +0.000 C 
ATOM     73  O   GLY E   9      35.811  36.153   3.024  0.00  0.00    +0.000 OA
ATOM     74  N   LEU E  10      34.220  37.376   4.090  0.00  0.00    +0.000 N 
ATOM     75  H   LEU E  10      33.983  38.019   4.825  0.00  0.00    +0.000 HD
ATOM     76  CA  LEU E  10      33.196  36.950   3.160  0.00  0.00    +0.000 C 
ATOM     77  C   LEU E  10      33.421  37.528   1.759  0.00  0.00    +0.000 C 
ATOM     78  O   LEU E  10      34.069  38.563   1.576  0.00  0.00    +0.000 OA
ATOM     79  CB  LEU E  10      31.819  37.283   3.655  0.00  0.00    +0.000 C 
ATOM     80  CG  LEU E  10      31.274  38.654   3.639  0.00  0.00    +0.000 C 
ATOM     81  CD1 LEU E  10      29.866  38.565   4.333  0.00  0.00    +0.000 C 
ATOM     82  CD2 LEU E  10      32.151  39.611   4.416  0.00  0.00    +0.000 C 
ATOM     83  N   SER E  11      32.859  36.842   0.760  0.00  0.00    +0.000 N 
ATOM     84  H   SER E  11      32.321  35.997   0.958  0.00  0.00    +0.000 HD
ATOM     85  CA  SER E  11      32.916  37.379  -0.601  0.00  0.00    +0.000 C 
ATOM     86  C   SER E  11      32.030  38.596  -0.760  0.00  0.00    +0.000 C 
ATOM     87  O   SER E  11      31.097  38.853   0.011  0.00  0.00    +0.000 OA
ATOM     88  CB  SER E  11      32.521  36.317  -1.619  0.00  0.00    +0.000 C 
ATOM     89  OG  SER E  11      31.118  36.182  -1.723  0.00  0.00    +0.000 OA
ATOM     90  HG  SER E  11      30.865  35.356  -1.285  0.00  0.00    +0.000 HD
ATOM     91  N   THR E  12      32.287  39.359  -1.813  0.00  0.00    +0.000 N 
ATOM     92  H   THR E  12      33.047  39.113  -2.439  0.00  0.00    +0.000 HD
ATOM     93  CA  THR E  12      31.446  40.496  -2.092  0.00  0.00    +0.000 C 
ATOM     94  C   THR E  12      30.027  40.033  -2.392  0.00  0.00    +0.000 C 
ATOM     95  O   THR E  12      29.070  40.713  -2.050  0.00  0.00    +0.000 OA
ATOM     96  CB  THR E  12      32.048  41.411  -3.189  0.00  0.00    +0.000 C 
ATOM     97  OG1 THR E  12      32.114  40.721  -4.452  0.00  0.00    +0.000 OA
ATOM     98  HG1 THR E  12      32.808  40.039  -4.401  0.00  0.00    +0.000 HD
ATOM     99  CG2 THR E  12      33.383  41.907  -2.767  0.00  0.00    +0.000 C 
ATOM    100  N   TYR E  13      29.882  38.865  -3.034  0.00  0.00    +0.000 N 
ATOM    101  H   TYR E  13      30.708  38.357  -3.319  0.00  0.00    +0.000 HD
ATOM    102  CA  TYR E  13      28.569  38.253  -3.234  0.00  0.00    +0.000 C 
ATOM    103  C   TYR E  13      27.874  37.975  -1.921  0.00  0.00    +0.000 C 
ATOM    104  O   TYR E  13      26.687  38.365  -1.726  0.00  0.00    +0.000 OA
ATOM    105  CB  TYR E  13      28.679  36.900  -3.999  0.00  0.00    +0.000 C 
ATOM    106  CG  TYR E  13      27.349  36.156  -4.056  0.00  0.00    +0.000 A 
ATOM    107  CD1 TYR E  13      26.376  36.530  -4.958  0.00  0.00    +0.000 A 
ATOM    108  CD2 TYR E  13      27.049  35.098  -3.186  0.00  0.00    +0.000 A 
ATOM    109  CE1 TYR E  13      25.153  35.902  -5.006  0.00  0.00    +0.000 A 
ATOM    110  CE2 TYR E  13      25.823  34.464  -3.235  0.00  0.00    +0.000 A 
ATOM    111  CZ  TYR E  13      24.869  34.882  -4.131  0.00  0.00    +0.000 A 
ATOM    112  OH  TYR E  13      23.620  34.289  -4.244  0.00  0.00    +0.000 OA
ATOM    113  HH  TYR E  13      23.252  34.451  -5.115  0.00  0.00    +0.000 HD
ATOM    114  N   ASP E  14      28.588  37.279  -1.037  0.00  0.00    +0.000 N 
ATOM    115  H   ASP E  14      29.521  37.012  -1.318  0.00  0.00    +0.000 HD
ATOM    116  CA  ASP E  14      28.136  36.841   0.333  0.00  0.00    +0.000 C 
ATOM    117  C   ASP E  14      27.604  38.082   1.071  0.00  0.00    +0.000 C 
ATOM    118  O   ASP E  14      26.554  38.084   1.737  0.00  0.00    +0.000 OA
ATOM    119  CB  ASP E  14      29.310  36.315   1.196  0.00  0.00    +0.000 C 
ATOM    120  CG  ASP E  14      29.886  34.936   0.774  0.00  0.00    +0.000 C 
ATOM    121  OD1 ASP E  14      29.170  34.232   0.019  0.00  0.00    +0.000 OA
ATOM    122  OD2 ASP E  14      31.041  34.548   1.291  0.00  0.00    +0.000 OA
ATOM    123  N   PHE E  15      28.374  39.164   0.982  0.00  0.00    +0.000 N 
ATOM    124  H   PHE E  15      29.242  39.114   0.461  0.00  0.00    +0.000 HD
ATOM    125  CA  PHE E  15      28.014  40.390   1.722  0.00  0.00    +0.000 C 
ATOM    126  C   PHE E  15      26.703  40.942   1.217  0.00  0.00    +0.000 C 
ATOM    127  O   PHE E  15      25.804  41.264   2.028  0.00  0.00    +0.000 OA
ATOM    128  CB  PHE E  15      29.117  41.460   1.662  0.00  0.00    +0.000 C 
ATOM    129  CG  PHE E  15      28.881  42.593   2.620  0.00  0.00    +0.000 A 
ATOM    130  CD1 PHE E  15      28.049  43.627   2.289  0.00  0.00    +0.000 A 
ATOM    131  CD2 PHE E  15      29.388  42.505   3.874  0.00  0.00    +0.000 A 
ATOM    132  CE1 PHE E  15      27.790  44.648   3.209  0.00  0.00    +0.000 A 
ATOM    133  CE2 PHE E  15      29.149  43.524   4.800  0.00  0.00    +0.000 A 
ATOM    134  CZ  PHE E  15      28.369  44.571   4.462  0.00  0.00    +0.000 A 
ATOM    135  N   NME E  16      26.579  41.079  -0.110  0.00  0.00    +0.000 N 
ATOM    136  H   NME E  16      27.309  40.714  -0.711  0.00  0.00    +0.000 HD
ATOM    137  C   NME E  16      25.360  41.637  -0.709  0.00  0.00    +0.000 C 
TER 
REMARK  Name = /home/xianyang/aimnet2_score_pipelines/work/L1234-fixed-receptor-eint-20260921/L1/P49759/prepared.pdb
REMARK                            x       y       z     vdW  Elec       q    Type
REMARK                         _______ _______ _______ _____ _____    ______ ____
ATOM      1  CH3 ACE F   1      32.629  37.386 -10.544  0.00  0.00    +0.000 C 
ATOM      2  C   ACE F   1      32.651  37.792  -9.037  0.00  0.00    +0.000 C 
ATOM      3  O   ACE F   1      33.688  37.643  -8.359  0.00  0.00    +0.000 OA
ATOM      4  N   PRO F   2      31.508  38.275  -8.512  0.00  0.00    +0.000 N 
ATOM      5  CA  PRO F   2      31.528  38.764  -7.113  0.00  0.00    +0.000 C 
ATOM      6  C   PRO F   2      31.924  37.688  -6.093  0.00  0.00    +0.000 C 
ATOM      7  O   PRO F   2      32.493  38.016  -5.046  0.00  0.00    +0.000 OA
ATOM      8  CB  PRO F   2      30.094  39.289  -6.915  0.00  0.00    +0.000 C 
ATOM      9  CG  PRO F   2      29.623  39.659  -8.314  0.00  0.00    +0.000 C 
ATOM     10  CD  PRO F   2      30.230  38.582  -9.200  0.00  0.00    +0.000 C 
ATOM     11  N   GLU F   3      31.628  36.426  -6.380  0.00  0.00    +0.000 N 
ATOM     12  H   GLU F   3      31.049  36.231  -7.201  0.00  0.00    +0.000 HD
ATOM     13  CA  GLU F   3      31.934  35.321  -5.489  0.00  0.00    +0.000 C 
ATOM     14  C   GLU F   3      33.456  35.141  -5.358  0.00  0.00    +0.000 C 
ATOM     15  O   GLU F   3      33.944  34.504  -4.395  0.00  0.00    +0.000 OA
ATOM     16  CB  GLU F   3      31.288  34.054  -6.028  0.00  0.00    +0.000 C 
ATOM     17  CG  GLU F   3      29.753  34.057  -6.062  0.00  0.00    +0.000 C 
ATOM     18  CD  GLU F   3      29.091  34.648  -7.349  0.00  0.00    +0.000 C 
ATOM     19  OE1 GLU F   3      29.636  35.519  -8.070  0.00  0.00    +0.000 OA
ATOM     20  OE2 GLU F   3      27.903  34.291  -7.548  0.00  0.00    +0.000 OA
ATOM     21  N   ASN F   4      34.194  35.600  -6.379  0.00  0.00    +0.000 N 
ATOM     22  H   ASN F   4      33.742  36.102  -7.134  0.00  0.00    +0.000 HD
ATOM     23  CA  ASN F   4      35.641  35.445  -6.402  0.00  0.00    +0.000 C 
ATOM     24  C   ASN F   4      36.419  36.698  -6.000  0.00  0.00    +0.000 C 
ATOM     25  O   ASN F   4      37.632  36.809  -6.238  0.00  0.00    +0.000 OA
ATOM     26  CB  ASN F   4      36.101  34.917  -7.766  0.00  0.00    +0.000 C 
ATOM     27  CG  ASN F   4      35.808  33.432  -7.955  0.00  0.00    +0.000 C 
ATOM     28  OD1 ASN F   4      35.511  32.710  -7.043  0.00  0.00    +0.000 OA
ATOM     29  ND2 ASN F   4      35.811  33.003  -9.216  0.00  0.00    +0.000 N 
ATOM     30 HD21 ASN F   4      35.868  31.993  -9.305  0.00  0.00    +0.000 HD
ATOM     31 HD22 ASN F   4      36.112  33.615  -9.957  0.00  0.00    +0.000 HD
ATOM     32  N   ILE F   5      35.701  37.663  -5.440  0.00  0.00    +0.000 N 
ATOM     33  H   ILE F   5      34.708  37.510  -5.306  0.00  0.00    +0.000 HD
ATOM     34  CA  ILE F   5      36.293  38.860  -4.862  0.00  0.00    +0.000 C 
ATOM     35  C   ILE F   5      35.945  38.798  -3.383  0.00  0.00    +0.000 C 
ATOM     36  O   ILE F   5      34.746  38.812  -3.030  0.00  0.00    +0.000 OA
ATOM     37  CB  ILE F   5      35.743  40.178  -5.491  0.00  0.00    +0.000 C 
ATOM     38  CG1 ILE F   5      35.752  40.156  -7.018  0.00  0.00    +0.000 C 
ATOM     39  CG2 ILE F   5      36.463  41.375  -4.903  0.00  0.00    +0.000 C 
ATOM     40  CD1 ILE F   5      37.054  40.059  -7.614  0.00  0.00    +0.000 C 
ATOM     41  N   LEU F   6      36.948  38.678  -2.496  0.00  0.00    +0.000 N 
ATOM     42  H   LEU F   6      37.912  38.730  -2.817  0.00  0.00    +0.000 HD
ATOM     43  CA  LEU F   6      36.699  38.511  -1.074  0.00  0.00    +0.000 C 
ATOM     44  C   LEU F   6      37.172  39.760  -0.286  0.00  0.00    +0.000 C 
ATOM     45  O   LEU F   6      38.211  40.318  -0.563  0.00  0.00    +0.000 OA
ATOM     46  CB  LEU F   6      37.356  37.247  -0.487  0.00  0.00    +0.000 C 
ATOM     47  CG  LEU F   6      36.541  35.970  -0.620  0.00  0.00    +0.000 C 
ATOM     48  CD1 LEU F   6      36.072  35.655  -1.953  0.00  0.00    +0.000 C 
ATOM     49  CD2 LEU F   6      37.352  34.807   0.018  0.00  0.00    +0.000 C 
ATOM     50  N   PHE F   7      36.384  40.149   0.679  0.00  0.00    +0.000 N 
ATOM     51  H   PHE F   7      35.553  39.610   0.903  0.00  0.00    +0.000 HD
ATOM     52  CA  PHE F   7      36.827  41.157   1.603  0.00  0.00    +0.000 C 
ATOM     53  C   PHE F   7      37.944  40.639   2.500  0.00  0.00    +0.000 C 
ATOM     54  O   PHE F   7      37.919  39.454   2.927  0.00  0.00    +0.000 OA
ATOM     55  CB  PHE F   7      35.668  41.653   2.466  0.00  0.00    +0.000 C 
ATOM     56  CG  PHE F   7      34.695  42.496   1.727  0.00  0.00    +0.000 A 
ATOM     57  CD1 PHE F   7      35.117  43.701   1.181  0.00  0.00    +0.000 A 
ATOM     58  CD2 PHE F   7      33.422  42.068   1.516  0.00  0.00    +0.000 A 
ATOM     59  CE1 PHE F   7      34.215  44.494   0.463  0.00  0.00    +0.000 A 
ATOM     60  CE2 PHE F   7      32.508  42.857   0.841  0.00  0.00    +0.000 A 
ATOM     61  CZ  PHE F   7      32.921  44.068   0.310  0.00  0.00    +0.000 A 
ATOM     62  N   NME F   8      38.926  41.484   2.724  0.00  0.00    +0.000 N 
ATOM     63  H   NME F   8      38.921  42.384   2.272  0.00  0.00    +0.000 HD
ATOM     64  C   NME F   8      40.055  41.124   3.632  0.00  0.00    +0.000 C 
TER 
REMARK  Name = /home/xianyang/aimnet2_score_pipelines/work/L1234-fixed-receptor-eint-20260921/L1/P49759/prepared.pdb
REMARK                            x       y       z     vdW  Elec       q    Type
REMARK                         _______ _______ _______ _____ _____    ______ ____
ATOM      1  CH3 ACE G   1      41.526  40.321  -2.678  0.00  0.00    +0.000 C 
ATOM      2  C   ACE G   1      40.748  39.568  -3.765  0.00  0.00    +0.000 C 
ATOM      3  O   ACE G   1      39.661  39.075  -3.511  0.00  0.00    +0.000 OA
ATOM      4  N   VAL G   2      41.390  39.385  -4.915  0.00  0.00    +0.000 N 
ATOM      5  H   VAL G   2      42.301  39.818  -5.027  0.00  0.00    +0.000 HD
ATOM      6  CA  VAL G   2      40.870  38.491  -5.958  0.00  0.00    +0.000 C 
ATOM      7  C   VAL G   2      41.346  37.079  -5.688  0.00  0.00    +0.000 C 
ATOM      8  O   VAL G   2      42.541  36.866  -5.327  0.00  0.00    +0.000 OA
ATOM      9  CB  VAL G   2      41.344  38.932  -7.336  0.00  0.00    +0.000 C 
ATOM     10  CG1 VAL G   2      40.892  37.941  -8.436  0.00  0.00    +0.000 C 
ATOM     11  CG2 VAL G   2      40.845  40.341  -7.651  0.00  0.00    +0.000 C 
ATOM     12  N   VAL G   3      40.427  36.120  -5.768  0.00  0.00    +0.000 N 
ATOM     13  H   VAL G   3      39.487  36.357  -6.075  0.00  0.00    +0.000 HD
ATOM     14  CA  VAL G   3      40.715  34.717  -5.470  0.00  0.00    +0.000 C 
ATOM     15  C   VAL G   3      40.349  33.804  -6.657  0.00  0.00    +0.000 C 
ATOM     16  O   VAL G   3      39.840  34.274  -7.683  0.00  0.00    +0.000 OA
ATOM     17  CB  VAL G   3      39.998  34.218  -4.188  0.00  0.00    +0.000 C 
ATOM     18  CG1 VAL G   3      40.285  35.159  -3.011  0.00  0.00    +0.000 C 
ATOM     19  CG2 VAL G   3      38.490  34.038  -4.367  0.00  0.00    +0.000 C 
ATOM     20  N   ASP G   4      40.597  32.515  -6.443  0.00  0.00    +0.000 N 
ATOM     21  H   ASP G   4      41.065  32.247  -5.593  0.00  0.00    +0.000 HD
ATOM     22  CA  ASP G   4      40.262  31.455  -7.339  0.00  0.00    +0.000 C 
ATOM     23  C   ASP G   4      40.975  31.573  -8.713  0.00  0.00    +0.000 C 
ATOM     24  O   ASP G   4      40.386  31.914  -9.730  0.00  0.00    +0.000 OA
ATOM     25  CB  ASP G   4      38.766  31.234  -7.539  0.00  0.00    +0.000 C 
ATOM     26  CG  ASP G   4      38.487  29.895  -8.238  0.00  0.00    +0.000 C 
ATOM     27  OD1 ASP G   4      39.440  29.063  -8.435  0.00  0.00    +0.000 OA
ATOM     28  OD2 ASP G   4      37.381  29.735  -8.748  0.00  0.00    +0.000 OA
ATOM     29  N   PHE G   5      42.212  31.111  -8.710  0.00  0.00    +0.000 N 
ATOM     30  H   PHE G   5      42.587  30.738  -7.838  0.00  0.00    +0.000 HD
ATOM     31  CA  PHE G   5      43.070  31.122  -9.887  0.00  0.00    +0.000 C 
ATOM     32  C   PHE G   5      43.142  29.775 -10.604  0.00  0.00    +0.000 C 
ATOM     33  O   PHE G   5      44.050  29.543 -11.409  0.00  0.00    +0.000 OA
ATOM     34  CB  PHE G   5      44.450  31.624  -9.479  0.00  0.00    +0.000 C 
ATOM     35  CG  PHE G   5      44.459  33.084  -9.201  0.00  0.00    +0.000 A 
ATOM     36  CD1 PHE G   5      44.012  33.579  -7.975  0.00  0.00    +0.000 A 
ATOM     37  CD2 PHE G   5      44.822  33.980 -10.183  0.00  0.00    +0.000 A 
ATOM     38  CE1 PHE G   5      43.931  34.940  -7.713  0.00  0.00    +0.000 A 
ATOM     39  CE2 PHE G   5      44.769  35.346  -9.918  0.00  0.00    +0.000 A 
ATOM     40  CZ  PHE G   5      44.333  35.823  -8.692  0.00  0.00    +0.000 A 
ATOM     41  N   NME G   6      42.156  28.929 -10.360  0.00  0.00    +0.000 N 
ATOM     42  H   NME G   6      41.428  29.231  -9.714  0.00  0.00    +0.000 HD
ATOM     43  C   NME G   6      42.028  27.600 -10.942  0.00  0.00    +0.000 C 
TER 
