REMARK  Name = /home/xianyang/aimnet2_score_pipelines/work/L1234-fixed-receptor-eint-20260921/L1/O95271/prepared.pdb
REMARK                            x       y       z     vdW  Elec       q    Type
REMARK                         _______ _______ _______ _____ _____    ______ ____
ATOM      1  CH3 ACE A   1     -15.155 -18.162   9.592  0.00  0.00    +0.000 C 
ATOM      2  C   ACE A   1     -16.645 -18.523   9.513  0.00  0.00    +0.000 C 
ATOM      3  O   ACE A   1     -17.230 -18.986  10.511  0.00  0.00    +0.000 OA
ATOM      4  N   LEU A   2     -17.256 -18.288   8.362  0.00  0.00    +0.000 N 
ATOM      5  H   LEU A   2     -16.737 -17.982   7.553  0.00  0.00    +0.000 HD
ATOM      6  CA  LEU A   2     -18.716 -18.442   8.246  0.00  0.00    +0.000 C 
ATOM      7  C   LEU A   2     -19.071 -19.016   6.896  0.00  0.00    +0.000 C 
ATOM      8  O   LEU A   2     -18.319 -18.877   5.925  0.00  0.00    +0.000 OA
ATOM      9  CB  LEU A   2     -19.420 -17.067   8.405  0.00  0.00    +0.000 C 
ATOM     10  CG  LEU A   2     -19.247 -16.373   9.758  0.00  0.00    +0.000 C 
ATOM     11  CD1 LEU A   2     -19.726 -14.950   9.657  0.00  0.00    +0.000 C 
ATOM     12  CD2 LEU A   2     -19.993 -17.123  10.864  0.00  0.00    +0.000 C 
ATOM     13  N   PHE A   3     -20.236 -19.643   6.796  0.00  0.00    +0.000 N 
ATOM     14  H   PHE A   3     -20.850 -19.673   7.602  0.00  0.00    +0.000 HD
ATOM     15  CA  PHE A   3     -20.664 -20.270   5.562  0.00  0.00    +0.000 C 
ATOM     16  C   PHE A   3     -21.463 -19.333   4.668  0.00  0.00    +0.000 C 
ATOM     17  O   PHE A   3     -22.113 -18.400   5.143  0.00  0.00    +0.000 OA
ATOM     18  CB  PHE A   3     -21.500 -21.531   5.896  0.00  0.00    +0.000 C 
ATOM     19  CG  PHE A   3     -20.713 -22.593   6.643  0.00  0.00    +0.000 A 
ATOM     20  CD1 PHE A   3     -19.908 -23.499   5.954  0.00  0.00    +0.000 A 
ATOM     21  CD2 PHE A   3     -20.790 -22.704   8.031  0.00  0.00    +0.000 A 
ATOM     22  CE1 PHE A   3     -19.165 -24.472   6.644  0.00  0.00    +0.000 A 
ATOM     23  CE2 PHE A   3     -20.018 -23.657   8.722  0.00  0.00    +0.000 A 
ATOM     24  CZ  PHE A   3     -19.214 -24.526   8.016  0.00  0.00    +0.000 A 
ATOM     25  N   HIS A   4     -21.395 -19.596   3.354  0.00  0.00    +0.000 N 
ATOM     26  H   HIS A   4     -20.795 -20.332   3.009  0.00  0.00    +0.000 HD
ATOM     27  CA  HIS A   4     -22.201 -18.877   2.387  0.00  0.00    +0.000 C 
ATOM     28  C   HIS A   4     -22.666 -19.839   1.300  0.00  0.00    +0.000 C 
ATOM     29  O   HIS A   4     -21.825 -20.558   0.714  0.00  0.00    +0.000 OA
ATOM     30  CB  HIS A   4     -21.393 -17.752   1.742  0.00  0.00    +0.000 C 
ATOM     31  CG  HIS A   4     -22.193 -16.825   0.845  0.00  0.00    +0.000 A 
ATOM     32  ND1 HIS A   4     -23.074 -15.910   1.371  0.00  0.00    +0.000 N 
ATOM     33  HD1 HIS A   4     -23.289 -15.723   2.348  0.00  0.00    +0.000 HD
ATOM     34  CD2 HIS A   4     -22.247 -16.719  -0.507  0.00  0.00    +0.000 A 
ATOM     35  CE1 HIS A   4     -23.584 -15.238   0.347  0.00  0.00    +0.000 A 
ATOM     36  NE2 HIS A   4     -23.139 -15.691  -0.804  0.00  0.00    +0.000 NA
ATOM     37  N   GLY A   5     -23.970 -19.845   1.046  0.00  0.00    +0.000 N 
ATOM     38  H   GLY A   5     -24.570 -19.171   1.503  0.00  0.00    +0.000 HD
ATOM     39  CA  GLY A   5     -24.527 -20.583  -0.074  0.00  0.00    +0.000 C 
ATOM     40  C   GLY A   5     -25.112 -19.597  -1.043  0.00  0.00    +0.000 C 
ATOM     41  O   GLY A   5     -25.683 -18.582  -0.634  0.00  0.00    +0.000 OA
ATOM     42  N   SER A   6     -24.940 -19.856  -2.332  0.00  0.00    +0.000 N 
ATOM     43  H   SER A   6     -24.441 -20.684  -2.621  0.00  0.00    +0.000 HD
ATOM     44  CA  SER A   6     -25.467 -18.995  -3.370  0.00  0.00    +0.000 C 
ATOM     45  C   SER A   6     -25.570 -19.756  -4.657  0.00  0.00    +0.000 C 
ATOM     46  O   SER A   6     -24.650 -20.487  -5.010  0.00  0.00    +0.000 OA
ATOM     47  CB  SER A   6     -24.541 -17.800  -3.618  0.00  0.00    +0.000 C 
ATOM     48  OG  SER A   6     -24.940 -17.054  -4.767  0.00  0.00    +0.000 OA
ATOM     49  HG  SER A   6     -24.518 -16.183  -4.696  0.00  0.00    +0.000 HD
ATOM     50  N   PRO A   7     -26.615 -19.493  -5.472  0.00  0.00    +0.000 N 
ATOM     51  CA  PRO A   7     -26.642 -20.111  -6.815  0.00  0.00    +0.000 C 
ATOM     52  C   PRO A   7     -25.566 -19.548  -7.749  0.00  0.00    +0.000 C 
ATOM     53  O   PRO A   7     -25.247 -20.141  -8.787  0.00  0.00    +0.000 OA
ATOM     54  CB  PRO A   7     -28.052 -19.799  -7.327  0.00  0.00    +0.000 C 
ATOM     55  CG  PRO A   7     -28.515 -18.665  -6.560  0.00  0.00    +0.000 C 
ATOM     56  CD  PRO A   7     -27.790 -18.641  -5.233  0.00  0.00    +0.000 C 
ATOM     57  N   PHE A   8     -24.946 -18.426  -7.354  0.00  0.00    +0.000 N 
ATOM     58  H   PHE A   8     -25.218 -18.001  -6.476  0.00  0.00    +0.000 HD
ATOM     59  CA  PHE A   8     -23.910 -17.768  -8.156  0.00  0.00    +0.000 C 
ATOM     60  C   PHE A   8     -22.547 -17.869  -7.510  0.00  0.00    +0.000 C 
ATOM     61  O   PHE A   8     -21.698 -16.984  -7.659  0.00  0.00    +0.000 OA
ATOM     62  CB  PHE A   8     -24.302 -16.315  -8.424  0.00  0.00    +0.000 C 
ATOM     63  CG  PHE A   8     -25.693 -16.190  -8.991  0.00  0.00    +0.000 A 
ATOM     64  CD1 PHE A   8     -25.996 -16.695 -10.254  0.00  0.00    +0.000 A 
ATOM     65  CD2 PHE A   8     -26.717 -15.615  -8.242  0.00  0.00    +0.000 A 
ATOM     66  CE1 PHE A   8     -27.296 -16.622 -10.757  0.00  0.00    +0.000 A 
ATOM     67  CE2 PHE A   8     -28.011 -15.528  -8.750  0.00  0.00    +0.000 A 
ATOM     68  CZ  PHE A   8     -28.294 -16.030 -10.003  0.00  0.00    +0.000 A 
ATOM     69  N   ILE A   9     -22.275 -19.019  -6.889  0.00  0.00    +0.000 N 
ATOM     70  H   ILE A   9     -23.025 -19.691  -6.789  0.00  0.00    +0.000 HD
ATOM     71  CA  ILE A   9     -21.006 -19.316  -6.261  0.00  0.00    +0.000 C 
ATOM     72  C   ILE A   9     -19.838 -19.280  -7.233  0.00  0.00    +0.000 C 
ATOM     73  O   ILE A   9     -18.761 -18.820  -6.862  0.00  0.00    +0.000 OA
ATOM     74  CB  ILE A   9     -21.135 -20.669  -5.531  0.00  0.00    +0.000 C 
ATOM     75  CG1 ILE A   9     -19.874 -20.953  -4.693  0.00  0.00    +0.000 C 
ATOM     76  CG2 ILE A   9     -21.509 -21.838  -6.493  0.00  0.00    +0.000 C 
ATOM     77  CD1 ILE A   9     -20.106 -22.161  -3.693  0.00  0.00    +0.000 C 
ATOM     78  N   NME A  10     -20.042 -19.704  -8.494  0.00  0.00    +0.000 N 
ATOM     79  H   NME A  10     -20.959 -20.031  -8.754  0.00  0.00    +0.000 HD
ATOM     80  C   NME A  10     -18.975 -19.639  -9.499  0.00  0.00    +0.000 C 
TER 
REMARK  Name = /home/xianyang/aimnet2_score_pipelines/work/L1234-fixed-receptor-eint-20260921/L1/O95271/prepared.pdb
REMARK                            x       y       z     vdW  Elec       q    Type
REMARK                         _______ _______ _______ _____ _____    ______ ____
ATOM      1  CH3 ACE B   1     -22.126  -5.957  -2.539  0.00  0.00    +0.000 C 
ATOM      2  C   ACE B   1     -23.071  -5.513  -3.657  0.00  0.00    +0.000 C 
ATOM      3  O   ACE B   1     -24.273  -5.358  -3.410  0.00  0.00    +0.000 OA
ATOM      4  N   ARG B   2     -22.562  -5.384  -4.884  0.00  0.00    +0.000 N 
ATOM      5  H   ARG B   2     -21.573  -5.523  -5.011  0.00  0.00    +0.000 HD
ATOM      6  CA  ARG B   2     -23.403  -5.051  -6.024  0.00  0.00    +0.000 C 
ATOM      7  C   ARG B   2     -24.341  -6.223  -6.386  0.00  0.00    +0.000 C 
ATOM      8  O   ARG B   2     -25.306  -6.033  -7.136  0.00  0.00    +0.000 OA
ATOM      9  CB  ARG B   2     -22.567  -4.589  -7.202  0.00  0.00    +0.000 C 
ATOM     10  CG  ARG B   2     -21.774  -3.293  -6.900  0.00  0.00    +0.000 C 
ATOM     11  CD  ARG B   2     -20.852  -2.878  -8.017  0.00  0.00    +0.000 C 
ATOM     12  NE  ARG B   2     -19.737  -3.822  -8.060  0.00  0.00    +0.000 N 
ATOM     13  HE  ARG B   2     -19.748  -4.585  -7.408  0.00  0.00    +0.000 HD
ATOM     14  CZ  ARG B   2     -18.708  -3.753  -8.892  0.00  0.00    +0.000 C 
ATOM     15  NH1 ARG B   2     -18.632  -2.768  -9.796  0.00  0.00    +0.000 N 
ATOM     16 HH11 ARG B   2     -17.853  -2.715 -10.428  0.00  0.00    +0.000 HD
ATOM     17 HH12 ARG B   2     -19.374  -2.094  -9.848  0.00  0.00    +0.000 HD
ATOM     18  NH2 ARG B   2     -17.730  -4.661  -8.822  0.00  0.00    +0.000 N 
ATOM     19 HH21 ARG B   2     -16.950  -4.610  -9.453  0.00  0.00    +0.000 HD
ATOM     20 HH22 ARG B   2     -17.771  -5.410  -8.154  0.00  0.00    +0.000 HD
ATOM     21  N   HIS B   3     -24.079  -7.406  -5.794  0.00  0.00    +0.000 N 
ATOM     22  H   HIS B   3     -23.283  -7.455  -5.184  0.00  0.00    +0.000 HD
ATOM     23  CA  HIS B   3     -24.914  -8.596  -5.914  0.00  0.00    +0.000 C 
ATOM     24  C   HIS B   3     -25.488  -8.974  -4.547  0.00  0.00    +0.000 C 
ATOM     25  O   HIS B   3     -25.725 -10.158  -4.264  0.00  0.00    +0.000 OA
ATOM     26  CB  HIS B   3     -24.130  -9.737  -6.545  0.00  0.00    +0.000 C 
ATOM     27  CG  HIS B   3     -23.802  -9.514  -7.980  0.00  0.00    +0.000 A 
ATOM     28  ND1 HIS B   3     -24.785  -9.509  -8.950  0.00  0.00    +0.000 N 
ATOM     29  HD1 HIS B   3     -25.773  -9.658  -8.820  0.00  0.00    +0.000 HD
ATOM     30  CD2 HIS B   3     -22.608  -9.260  -8.563  0.00  0.00    +0.000 A 
ATOM     31  CE1 HIS B   3     -24.162  -9.291 -10.097  0.00  0.00    +0.000 A 
ATOM     32  NE2 HIS B   3     -22.853  -9.124  -9.912  0.00  0.00    +0.000 NA
ATOM     33  N   ALA B   4     -25.811  -7.977  -3.716  0.00  0.00    +0.000 N 
ATOM     34  H   ALA B   4     -25.644  -7.022  -4.001  0.00  0.00    +0.000 HD
ATOM     35  CA  ALA B   4     -26.381  -8.188  -2.387  0.00  0.00    +0.000 C 
ATOM     36  C   ALA B   4     -27.755  -8.891  -2.467  0.00  0.00    +0.000 C 
ATOM     37  O   ALA B   4     -28.447  -8.823  -3.501  0.00  0.00    +0.000 OA
ATOM     38  CB  ALA B   4     -26.582  -6.841  -1.700  0.00  0.00    +0.000 C 
ATOM     39  N   TYR B   5     -28.152  -9.501  -1.361  0.00  0.00    +0.000 N 
ATOM     40  H   TYR B   5     -27.567  -9.446  -0.533  0.00  0.00    +0.000 HD
ATOM     41  CA  TYR B   5     -29.483 -10.099  -1.231  0.00  0.00    +0.000 C 
ATOM     42  C   TYR B   5     -30.418  -8.960  -0.803  0.00  0.00    +0.000 C 
ATOM     43  O   TYR B   5     -30.542  -8.648   0.381  0.00  0.00    +0.000 OA
ATOM     44  CB  TYR B   5     -29.398 -11.235  -0.209  0.00  0.00    +0.000 C 
ATOM     45  CG  TYR B   5     -30.704 -11.908   0.183  0.00  0.00    +0.000 A 
ATOM     46  CD1 TYR B   5     -31.848 -11.815  -0.624  0.00  0.00    +0.000 A 
ATOM     47  CD2 TYR B   5     -30.806 -12.617   1.372  0.00  0.00    +0.000 A 
ATOM     48  CE1 TYR B   5     -33.048 -12.430  -0.254  0.00  0.00    +0.000 A 
ATOM     49  CE2 TYR B   5     -31.988 -13.260   1.734  0.00  0.00    +0.000 A 
ATOM     50  CZ  TYR B   5     -33.106 -13.143   0.930  0.00  0.00    +0.000 A 
ATOM     51  OH  TYR B   5     -34.256 -13.740   1.350  0.00  0.00    +0.000 OA
ATOM     52  HH  TYR B   5     -34.232 -13.938   2.291  0.00  0.00    +0.000 HD
ATOM     53  N   ILE B   6     -31.092  -8.335  -1.777  0.00  0.00    +0.000 N 
ATOM     54  H   ILE B   6     -30.839  -8.545  -2.734  0.00  0.00    +0.000 HD
ATOM     55  CA  ILE B   6     -31.959  -7.183  -1.511  0.00  0.00    +0.000 C 
ATOM     56  C   ILE B   6     -33.065  -7.505  -0.536  0.00  0.00    +0.000 C 
ATOM     57  O   ILE B   6     -33.408  -6.655   0.290  0.00  0.00    +0.000 OA
ATOM     58  CB  ILE B   6     -32.485  -6.606  -2.852  0.00  0.00    +0.000 C 
ATOM     59  CG1 ILE B   6     -31.358  -5.836  -3.538  0.00  0.00    +0.000 C 
ATOM     60  CG2 ILE B   6     -33.737  -5.734  -2.702  0.00  0.00    +0.000 C 
ATOM     61  CD1 ILE B   6     -31.528  -5.771  -4.992  0.00  0.00    +0.000 C 
ATOM     62  N   GLY B   7     -33.623  -8.704  -0.625  0.00  0.00    +0.000 N 
ATOM     63  H   GLY B   7     -33.268  -9.356  -1.302  0.00  0.00    +0.000 HD
ATOM     64  CA  GLY B   7     -34.757  -9.085   0.203  0.00  0.00    +0.000 C 
ATOM     65  C   GLY B   7     -34.394  -9.650   1.571  0.00  0.00    +0.000 C 
ATOM     66  O   GLY B   7     -35.300 -10.087   2.292  0.00  0.00    +0.000 OA
ATOM     67  N   GLY B   8     -33.106  -9.637   1.943  0.00  0.00    +0.000 N 
ATOM     68  H   GLY B   8     -32.423  -9.184   1.350  0.00  0.00    +0.000 HD
ATOM     69  CA  GLY B   8     -32.682 -10.104   3.257  0.00  0.00    +0.000 C 
ATOM     70  C   GLY B   8     -33.265  -9.312   4.414  0.00  0.00    +0.000 C 
ATOM     71  O   GLY B   8     -33.644  -8.157   4.245  0.00  0.00    +0.000 OA
ATOM     72  N   MET B   9     -33.314  -9.893   5.616  0.00  0.00    +0.000 N 
ATOM     73  H   MET B   9     -32.964 -10.833   5.727  0.00  0.00    +0.000 HD
ATOM     74  CA  MET B   9     -33.975  -9.250   6.745  0.00  0.00    +0.000 C 
ATOM     75  C   MET B   9     -33.264  -7.983   7.216  0.00  0.00    +0.000 C 
ATOM     76  O   MET B   9     -33.856  -7.209   7.958  0.00  0.00    +0.000 OA
ATOM     77  CB  MET B   9     -34.197 -10.239   7.891  0.00  0.00    +0.000 C 
ATOM     78  CG  MET B   9     -32.922 -10.584   8.583  0.00  0.00    +0.000 C 
ATOM     79  SD  MET B   9     -33.088 -11.808   9.891  0.00  0.00    +0.000 S 
ATOM     80  CE  MET B   9     -34.184 -10.995  11.008  0.00  0.00    +0.000 C 
ATOM     81  N   NME B  10     -31.988  -7.797   6.829  0.00  0.00    +0.000 N 
ATOM     82  H   NME B  10     -31.637  -8.454   6.148  0.00  0.00    +0.000 HD
ATOM     83  C   NME B  10     -31.228  -6.598   7.151  0.00  0.00    +0.000 C 
TER 
REMARK  Name = /home/xianyang/aimnet2_score_pipelines/work/L1234-fixed-receptor-eint-20260921/L1/O95271/prepared.pdb
REMARK                            x       y       z     vdW  Elec       q    Type
REMARK                         _______ _______ _______ _____ _____    ______ ____
ATOM      1  CH3 ACE C   1     -26.085  -6.974   2.247  0.00  0.00    +0.000 C 
ATOM      2  C   ACE C   1     -25.763  -8.360   1.711  0.00  0.00    +0.000 C 
ATOM      3  O   ACE C   1     -26.541  -8.953   0.950  0.00  0.00    +0.000 OA
ATOM      4  N   ILE C   2     -24.609  -8.869   2.110  0.00  0.00    +0.000 N 
ATOM      5  H   ILE C   2     -24.057  -8.326   2.754  0.00  0.00    +0.000 HD
ATOM      6  CA  ILE C   2     -24.138 -10.223   1.805  0.00  0.00    +0.000 C 
ATOM      7  C   ILE C   2     -24.220 -10.955   3.100  0.00  0.00    +0.000 C 
ATOM      8  O   ILE C   2     -23.684 -10.500   4.120  0.00  0.00    +0.000 OA
ATOM      9  CB  ILE C   2     -22.710 -10.204   1.249  0.00  0.00    +0.000 C 
ATOM     10  CG1 ILE C   2     -22.571  -9.190   0.051  0.00  0.00    +0.000 C 
ATOM     11  CG2 ILE C   2     -22.326 -11.624   0.833  0.00  0.00    +0.000 C 
ATOM     12  CD1 ILE C   2     -21.059  -9.006  -0.300  0.00  0.00    +0.000 C 
ATOM     13  N   TYR C   3     -24.948 -12.097   3.076  0.00  0.00    +0.000 N 
ATOM     14  H   TYR C   3     -25.311 -12.431   2.198  0.00  0.00    +0.000 HD
ATOM     15  CA  TYR C   3     -25.348 -12.822   4.300  0.00  0.00    +0.000 C 
ATOM     16  C   TYR C   3     -24.556 -14.109   4.486  0.00  0.00    +0.000 C 
ATOM     17  O   TYR C   3     -24.373 -14.861   3.529  0.00  0.00    +0.000 OA
ATOM     18  CB  TYR C   3     -26.843 -13.183   4.200  0.00  0.00    +0.000 C 
ATOM     19  CG  TYR C   3     -27.790 -12.004   4.327  0.00  0.00    +0.000 A 
ATOM     20  CD1 TYR C   3     -27.903 -11.054   3.305  0.00  0.00    +0.000 A 
ATOM     21  CD2 TYR C   3     -28.563 -11.837   5.465  0.00  0.00    +0.000 A 
ATOM     22  CE1 TYR C   3     -28.722  -9.930   3.459  0.00  0.00    +0.000 A 
ATOM     23  CE2 TYR C   3     -29.420 -10.747   5.596  0.00  0.00    +0.000 A 
ATOM     24  CZ  TYR C   3     -29.441  -9.770   4.624  0.00  0.00    +0.000 A 
ATOM     25  OH  TYR C   3     -30.281  -8.684   4.754  0.00  0.00    +0.000 OA
ATOM     26  HH  TYR C   3     -30.016  -8.131   5.492  0.00  0.00    +0.000 HD
ATOM     27  N   PHE C   4     -24.224 -14.406   5.739  0.00  0.00    +0.000 N 
ATOM     28  H   PHE C   4     -24.407 -13.720   6.464  0.00  0.00    +0.000 HD
ATOM     29  CA  PHE C   4     -23.439 -15.589   6.097  0.00  0.00    +0.000 C 
ATOM     30  C   PHE C   4     -24.080 -16.230   7.313  0.00  0.00    +0.000 C 
ATOM     31  O   PHE C   4     -24.718 -15.560   8.134  0.00  0.00    +0.000 OA
ATOM     32  CB  PHE C   4     -21.988 -15.161   6.469  0.00  0.00    +0.000 C 
ATOM     33  CG  PHE C   4     -21.252 -14.557   5.307  0.00  0.00    +0.000 A 
ATOM     34  CD1 PHE C   4     -21.389 -13.197   5.000  0.00  0.00    +0.000 A 
ATOM     35  CD2 PHE C   4     -20.415 -15.349   4.519  0.00  0.00    +0.000 A 
ATOM     36  CE1 PHE C   4     -20.748 -12.651   3.878  0.00  0.00    +0.000 A 
ATOM     37  CE2 PHE C   4     -19.735 -14.795   3.425  0.00  0.00    +0.000 A 
ATOM     38  CZ  PHE C   4     -19.932 -13.458   3.098  0.00  0.00    +0.000 A 
ATOM     39  N   ALA C   5     -23.799 -17.538   7.455  0.00  0.00    +0.000 N 
ATOM     40  H   ALA C   5     -23.210 -18.006   6.773  0.00  0.00    +0.000 HD
ATOM     41  CA  ALA C   5     -24.340 -18.288   8.581  0.00  0.00    +0.000 C 
ATOM     42  C   ALA C   5     -23.198 -18.938   9.358  0.00  0.00    +0.000 C 
ATOM     43  O   ALA C   5     -22.155 -19.312   8.769  0.00  0.00    +0.000 OA
ATOM     44  CB  ALA C   5     -25.220 -19.413   8.037  0.00  0.00    +0.000 C 
ATOM     45  N   GLU C   6     -23.397 -19.168  10.661  0.00  0.00    +0.000 N 
ATOM     46  H   GLU C   6     -24.219 -18.810  11.126  0.00  0.00    +0.000 HD
ATOM     47  CA  GLU C   6     -22.462 -19.957  11.430  0.00  0.00    +0.000 C 
ATOM     48  C   GLU C   6     -22.916 -21.421  11.373  0.00  0.00    +0.000 C 
ATOM     49  O   GLU C   6     -22.168 -22.287  11.816  0.00  0.00    +0.000 OA
ATOM     50  CB  GLU C   6     -22.307 -19.450  12.870  0.00  0.00    +0.000 C 
ATOM     51  CG  GLU C   6     -23.572 -19.494  13.713  0.00  0.00    +0.000 C 
ATOM     52  CD  GLU C   6     -23.432 -18.845  15.080  0.00  0.00    +0.000 C 
ATOM     53  OE1 GLU C   6     -22.407 -18.169  15.320  0.00  0.00    +0.000 OA
ATOM     54  OE2 GLU C   6     -24.349 -19.009  15.916  0.00  0.00    +0.000 OA
ATOM     55  N   ASN C   7     -24.117 -21.714  10.855  0.00  0.00    +0.000 N 
ATOM     56  H   ASN C   7     -24.704 -20.956  10.552  0.00  0.00    +0.000 HD
ATOM     57  CA  ASN C   7     -24.617 -23.087  10.718  0.00  0.00    +0.000 C 
ATOM     58  C   ASN C   7     -24.615 -23.438   9.261  0.00  0.00    +0.000 C 
ATOM     59  O   ASN C   7     -25.338 -22.802   8.476  0.00  0.00    +0.000 OA
ATOM     60  CB  ASN C   7     -26.053 -23.190  11.278  0.00  0.00    +0.000 C 
ATOM     61  CG  ASN C   7     -26.046 -22.836  12.742  0.00  0.00    +0.000 C 
ATOM     62  OD1 ASN C   7     -26.380 -21.703  13.112  0.00  0.00    +0.000 OA
ATOM     63  ND2 ASN C   7     -25.590 -23.750  13.591  0.00  0.00    +0.000 N 
ATOM     64 HD21 ASN C   7     -25.326 -24.652  13.294  0.00  0.00    +0.000 HD
ATOM     65 HD22 ASN C   7     -25.527 -23.460  14.548  0.00  0.00    +0.000 HD
ATOM     66  N   SER C   8     -23.845 -24.482   8.882  0.00  0.00    +0.000 N 
ATOM     67  H   SER C   8     -23.272 -24.969   9.556  0.00  0.00    +0.000 HD
ATOM     68  CA  SER C   8     -23.730 -24.836   7.470  0.00  0.00    +0.000 C 
ATOM     69  C   SER C   8     -25.111 -25.119   6.857  0.00  0.00    +0.000 C 
ATOM     70  O   SER C   8     -25.339 -24.796   5.677  0.00  0.00    +0.000 OA
ATOM     71  CB  SER C   8     -22.807 -26.030   7.271  0.00  0.00    +0.000 C 
ATOM     72  OG  SER C   8     -23.412 -27.151   7.890  0.00  0.00    +0.000 OA
ATOM     73  HG  SER C   8     -22.863 -27.930   7.738  0.00  0.00    +0.000 HD
ATOM     74  N   SER C   9     -26.022 -25.768   7.613  0.00  0.00    +0.000 N 
ATOM     75  H   SER C   9     -25.781 -26.087   8.539  0.00  0.00    +0.000 HD
ATOM     76  CA  SER C   9     -27.326 -26.076   7.058  0.00  0.00    +0.000 C 
ATOM     77  C   SER C   9     -28.205 -24.869   6.747  0.00  0.00    +0.000 C 
ATOM     78  O   SER C   9     -29.049 -24.974   5.861  0.00  0.00    +0.000 OA
ATOM     79  CB  SER C   9     -28.063 -27.051   7.970  0.00  0.00    +0.000 C 
ATOM     80  OG  SER C   9     -28.140 -26.521   9.283  0.00  0.00    +0.000 OA
ATOM     81  HG  SER C   9     -28.602 -27.140   9.846  0.00  0.00    +0.000 HD
ATOM     82  N   LYS C  10     -27.937 -23.704   7.377  0.00  0.00    +0.000 N 
ATOM     83  H   LYS C  10     -27.184 -23.665   8.053  0.00  0.00    +0.000 HD
ATOM     84  CA  LYS C  10     -28.656 -22.506   7.019  0.00  0.00    +0.000 C 
ATOM     85  C   LYS C  10     -28.159 -22.052   5.633  0.00  0.00    +0.000 C 
ATOM     86  O   LYS C  10     -28.966 -21.714   4.764  0.00  0.00    +0.000 OA
ATOM     87  CB  LYS C  10     -28.478 -21.448   8.115  0.00  0.00    +0.000 C 
ATOM     88  CG  LYS C  10     -29.233 -20.168   7.817  0.00  0.00    +0.000 C 
ATOM     89  CD  LYS C  10     -29.322 -19.305   9.100  0.00  0.00    +0.000 C 
ATOM     90  CE  LYS C  10     -30.180 -18.061   8.871  0.00  0.00    +0.000 C 
ATOM     91  NZ  LYS C  10     -30.285 -17.205  10.098  0.00  0.00    +0.000 N 
ATOM     92  HZ1 LYS C  10     -29.372 -17.025  10.509  0.00  0.00    +0.000 HD
ATOM     93  HZ2 LYS C  10     -30.879 -17.590  10.817  0.00  0.00    +0.000 HD
ATOM     94  HZ3 LYS C  10     -30.638 -16.281   9.797  0.00  0.00    +0.000 HD
ATOM     95  N   SER C  11     -26.817 -22.066   5.417  0.00  0.00    +0.000 N 
ATOM     96  H   SER C  11     -26.178 -22.334   6.152  0.00  0.00    +0.000 HD
ATOM     97  CA  SER C  11     -26.343 -21.704   4.088  0.00  0.00    +0.000 C 
ATOM     98  C   SER C  11     -26.777 -22.695   3.008  0.00  0.00    +0.000 C 
ATOM     99  O   SER C  11     -27.017 -22.290   1.874  0.00  0.00    +0.000 OA
ATOM    100  CB  SER C  11     -24.822 -21.561   4.054  0.00  0.00    +0.000 C 
ATOM    101  OG  SER C  11     -24.421 -20.390   4.764  0.00  0.00    +0.000 OA
ATOM    102  HG  SER C  11     -23.513 -20.474   5.068  0.00  0.00    +0.000 HD
ATOM    103  N   ASN C  12     -26.937 -23.978   3.372  0.00  0.00    +0.000 N 
ATOM    104  H   ASN C  12     -26.650 -24.271   4.299  0.00  0.00    +0.000 HD
ATOM    105  CA  ASN C  12     -27.446 -24.996   2.423  0.00  0.00    +0.000 C 
ATOM    106  C   ASN C  12     -28.844 -24.629   1.889  0.00  0.00    +0.000 C 
ATOM    107  O   ASN C  12     -29.178 -25.003   0.758  0.00  0.00    +0.000 OA
ATOM    108  CB  ASN C  12     -27.475 -26.353   3.105  0.00  0.00    +0.000 C 
ATOM    109  CG  ASN C  12     -28.006 -27.444   2.228  0.00  0.00    +0.000 C 
ATOM    110  OD1 ASN C  12     -27.434 -27.803   1.191  0.00  0.00    +0.000 OA
ATOM    111  ND2 ASN C  12     -29.178 -27.963   2.599  0.00  0.00    +0.000 N 
ATOM    112 HD21 ASN C  12     -29.545 -28.666   2.009  0.00  0.00    +0.000 HD
ATOM    113 HD22 ASN C  12     -29.676 -27.620   3.397  0.00  0.00    +0.000 HD
ATOM    114  N   GLN C  13     -29.648 -23.864   2.649  0.00  0.00    +0.000 N 
ATOM    115  H   GLN C  13     -29.327 -23.556   3.559  0.00  0.00    +0.000 HD
ATOM    116  CA  GLN C  13     -30.986 -23.409   2.196  0.00  0.00    +0.000 C 
ATOM    117  C   GLN C  13     -30.896 -22.438   1.025  0.00  0.00    +0.000 C 
ATOM    118  O   GLN C  13     -31.933 -22.150   0.416  0.00  0.00    +0.000 OA
ATOM    119  CB  GLN C  13     -31.719 -22.734   3.328  0.00  0.00    +0.000 C 
ATOM    120  CG  GLN C  13     -32.019 -23.649   4.490  0.00  0.00    +0.000 C 
ATOM    121  CD  GLN C  13     -32.856 -22.966   5.537  0.00  0.00    +0.000 C 
ATOM    122  OE1 GLN C  13     -32.468 -21.937   6.084  0.00  0.00    +0.000 OA
ATOM    123  NE2 GLN C  13     -34.001 -23.533   5.889  0.00  0.00    +0.000 N 
ATOM    124 HE21 GLN C  13     -34.547 -23.036   6.561  0.00  0.00    +0.000 HD
ATOM    125 HE22 GLN C  13     -34.326 -24.400   5.482  0.00  0.00    +0.000 HD
ATOM    126  N   TYR C  14     -29.693 -21.910   0.699  0.00  0.00    +0.000 N 
ATOM    127  H   TYR C  14     -28.888 -22.145   1.266  0.00  0.00    +0.000 HD
ATOM    128  CA  TYR C  14     -29.529 -20.897  -0.334  0.00  0.00    +0.000 C 
ATOM    129  C   TYR C  14     -28.726 -21.339  -1.531  0.00  0.00    +0.000 C 
ATOM    130  O   TYR C  14     -28.578 -20.556  -2.464  0.00  0.00    +0.000 OA
ATOM    131  CB  TYR C  14     -28.910 -19.639   0.288  0.00  0.00    +0.000 C 
ATOM    132  CG  TYR C  14     -29.833 -18.953   1.254  0.00  0.00    +0.000 A 
ATOM    133  CD1 TYR C  14     -30.733 -17.978   0.819  0.00  0.00    +0.000 A 
ATOM    134  CD2 TYR C  14     -29.803 -19.257   2.613  0.00  0.00    +0.000 A 
ATOM    135  CE1 TYR C  14     -31.618 -17.372   1.706  0.00  0.00    +0.000 A 
ATOM    136  CE2 TYR C  14     -30.686 -18.656   3.509  0.00  0.00    +0.000 A 
ATOM    137  CZ  TYR C  14     -31.546 -17.671   3.055  0.00  0.00    +0.000 A 
ATOM    138  OH  TYR C  14     -32.431 -17.087   3.923  0.00  0.00    +0.000 OA
ATOM    139  HH  TYR C  14     -32.279 -17.358   4.829  0.00  0.00    +0.000 HD
ATOM    140  N   VAL C  15     -28.234 -22.582  -1.544  0.00  0.00    +0.000 N 
ATOM    141  H   VAL C  15     -28.422 -23.183  -0.751  0.00  0.00    +0.000 HD
ATOM    142  CA  VAL C  15     -27.428 -23.092  -2.639  0.00  0.00    +0.000 C 
ATOM    143  C   VAL C  15     -28.181 -23.080  -3.945  0.00  0.00    +0.000 C 
ATOM    144  O   VAL C  15     -27.545 -22.743  -4.953  0.00  0.00    +0.000 OA
ATOM    145  CB  VAL C  15     -26.877 -24.478  -2.248  0.00  0.00    +0.000 C 
ATOM    146  CG1 VAL C  15     -26.276 -25.228  -3.423  0.00  0.00    +0.000 C 
ATOM    147  CG2 VAL C  15     -25.897 -24.378  -1.071  0.00  0.00    +0.000 C 
ATOM    148  N   TYR C  16     -29.494 -23.340  -3.928  0.00  0.00    +0.000 N 
ATOM    149  H   TYR C  16     -29.944 -23.600  -3.064  0.00  0.00    +0.000 HD
ATOM    150  CA  TYR C  16     -30.258 -23.314  -5.166  0.00  0.00    +0.000 C 
ATOM    151  C   TYR C  16     -31.162 -22.083  -5.253  0.00  0.00    +0.000 C 
ATOM    152  O   TYR C  16     -32.085 -22.019  -6.085  0.00  0.00    +0.000 OA
ATOM    153  CB  TYR C  16     -31.056 -24.603  -5.303  0.00  0.00    +0.000 C 
ATOM    154  CG  TYR C  16     -30.179 -25.826  -5.484  0.00  0.00    +0.000 A 
ATOM    155  CD1 TYR C  16     -29.152 -25.848  -6.437  0.00  0.00    +0.000 A 
ATOM    156  CD2 TYR C  16     -30.408 -26.979  -4.751  0.00  0.00    +0.000 A 
ATOM    157  CE1 TYR C  16     -28.372 -26.992  -6.634  0.00  0.00    +0.000 A 
ATOM    158  CE2 TYR C  16     -29.660 -28.133  -4.966  0.00  0.00    +0.000 A 
ATOM    159  CZ  TYR C  16     -28.646 -28.138  -5.907  0.00  0.00    +0.000 A 
ATOM    160  OH  TYR C  16     -27.959 -29.325  -6.112  0.00  0.00    +0.000 OA
ATOM    161  HH  TYR C  16     -27.247 -29.227  -6.745  0.00  0.00    +0.000 HD
ATOM    162  N   GLY C  17     -30.843 -21.069  -4.463  0.00  0.00    +0.000 N 
ATOM    163  H   GLY C  17     -30.062 -21.166  -3.826  0.00  0.00    +0.000 HD
ATOM    164  CA  GLY C  17     -31.565 -19.799  -4.488  0.00  0.00    +0.000 C 
ATOM    165  C   GLY C  17     -32.294 -19.504  -3.207  0.00  0.00    +0.000 C 
ATOM    166  O   GLY C  17     -32.286 -20.302  -2.275  0.00  0.00    +0.000 OA
ATOM    167  N   ILE C  18     -32.964 -18.333  -3.171  0.00  0.00    +0.000 N 
ATOM    168  H   ILE C  18     -32.990 -17.767  -4.003  0.00  0.00    +0.000 HD
ATOM    169  CA  ILE C  18     -33.765 -17.925  -2.029  0.00  0.00    +0.000 C 
ATOM    170  C   ILE C  18     -34.849 -18.972  -1.767  0.00  0.00    +0.000 C 
ATOM    171  O   ILE C  18     -35.519 -19.417  -2.694  0.00  0.00    +0.000 OA
ATOM    172  CB  ILE C  18     -34.392 -16.541  -2.306  0.00  0.00    +0.000 C 
ATOM    173  CG1 ILE C  18     -33.280 -15.480  -2.378  0.00  0.00    +0.000 C 
ATOM    174  CG2 ILE C  18     -35.411 -16.179  -1.202  0.00  0.00    +0.000 C 
ATOM    175  CD1 ILE C  18     -33.672 -14.251  -3.187  0.00  0.00    +0.000 C 
ATOM    176  N   GLY C  19     -34.975 -19.418  -0.520  0.00  0.00    +0.000 N 
ATOM    177  H   GLY C  19     -34.346 -19.092   0.196  0.00  0.00    +0.000 HD
ATOM    178  CA  GLY C  19     -35.951 -20.462  -0.200  0.00  0.00    +0.000 C 
ATOM    179  C   GLY C  19     -35.646 -21.804  -0.848  0.00  0.00    +0.000 C 
ATOM    180  O   GLY C  19     -36.520 -22.665  -0.858  0.00  0.00    +0.000 OA
ATOM    181  N   NME C  20     -34.429 -21.992  -1.390  0.00  0.00    +0.000 N 
ATOM    182  H   NME C  20     -33.734 -21.256  -1.336  0.00  0.00    +0.000 HD
ATOM    183  C   NME C  20     -34.063 -23.210  -2.108  0.00  0.00    +0.000 C 
TER 
REMARK  Name = /home/xianyang/aimnet2_score_pipelines/work/L1234-fixed-receptor-eint-20260921/L1/O95271/prepared.pdb
REMARK                            x       y       z     vdW  Elec       q    Type
REMARK                         _______ _______ _______ _____ _____    ______ ____
ATOM      1  CH3 ACE D   1     -33.744 -19.748  14.986  0.00  0.00    +0.000 C 
ATOM      2  C   ACE D   1     -32.211 -19.811  15.129  0.00  0.00    +0.000 C 
ATOM      3  O   ACE D   1     -31.682 -20.282  16.130  0.00  0.00    +0.000 OA
ATOM      4  N   TYR D   2     -31.505 -19.305  14.112  0.00  0.00    +0.000 N 
ATOM      5  H   TYR D   2     -32.010 -18.851  13.371  0.00  0.00    +0.000 HD
ATOM      6  CA  TYR D   2     -30.039 -19.346  14.015  0.00  0.00    +0.000 C 
ATOM      7  C   TYR D   2     -29.517 -17.986  13.643  0.00  0.00    +0.000 C 
ATOM      8  O   TYR D   2     -30.250 -17.187  13.050  0.00  0.00    +0.000 OA
ATOM      9  CB  TYR D   2     -29.582 -20.429  13.020  0.00  0.00    +0.000 C 
ATOM     10  CG  TYR D   2     -30.201 -21.763  13.380  0.00  0.00    +0.000 A 
ATOM     11  CD1 TYR D   2     -29.835 -22.426  14.546  0.00  0.00    +0.000 A 
ATOM     12  CD2 TYR D   2     -31.252 -22.290  12.633  0.00  0.00    +0.000 A 
ATOM     13  CE1 TYR D   2     -30.505 -23.574  14.970  0.00  0.00    +0.000 A 
ATOM     14  CE2 TYR D   2     -31.908 -23.462  13.028  0.00  0.00    +0.000 A 
ATOM     15  CZ  TYR D   2     -31.504 -24.111  14.180  0.00  0.00    +0.000 A 
ATOM     16  OH  TYR D   2     -32.141 -25.254  14.621  0.00  0.00    +0.000 OA
ATOM     17  HH  TYR D   2     -31.895 -25.474  15.521  0.00  0.00    +0.000 HD
ATOM     18  N   ALA D   3     -28.250 -17.729  13.965  0.00  0.00    +0.000 N 
ATOM     19  H   ALA D   3     -27.681 -18.427  14.426  0.00  0.00    +0.000 HD
ATOM     20  CA  ALA D   3     -27.673 -16.418  13.690  0.00  0.00    +0.000 C 
ATOM     21  C   ALA D   3     -27.472 -16.183  12.221  0.00  0.00    +0.000 C 
ATOM     22  O   ALA D   3     -27.442 -17.120  11.419  0.00  0.00    +0.000 OA
ATOM     23  CB  ALA D   3     -26.357 -16.270  14.436  0.00  0.00    +0.000 C 
ATOM     24  N   GLU D   4     -27.385 -14.902  11.849  0.00  0.00    +0.000 N 
ATOM     25  H   GLU D   4     -27.403 -14.166  12.544  0.00  0.00    +0.000 HD
ATOM     26  CA  GLU D   4     -26.941 -14.526  10.522  0.00  0.00    +0.000 C 
ATOM     27  C   GLU D   4     -26.081 -13.299  10.637  0.00  0.00    +0.000 C 
ATOM     28  O   GLU D   4     -26.233 -12.509  11.585  0.00  0.00    +0.000 OA
ATOM     29  CB  GLU D   4     -28.000 -14.434   9.455  0.00  0.00    +0.000 C 
ATOM     30  CG  GLU D   4     -29.099 -13.425   9.682  0.00  0.00    +0.000 C 
ATOM     31  CD  GLU D   4     -30.266 -13.681   8.744  0.00  0.00    +0.000 C 
ATOM     32  OE1 GLU D   4     -30.563 -12.813   7.897  0.00  0.00    +0.000 OA
ATOM     33  OE2 GLU D   4     -30.867 -14.774   8.830  0.00  0.00    +0.000 OA
ATOM     34  N   TYR D   5     -25.138 -13.188   9.725  0.00  0.00    +0.000 N 
ATOM     35  H   TYR D   5     -25.074 -13.902   9.008  0.00  0.00    +0.000 HD
ATOM     36  CA  TYR D   5     -24.115 -12.164   9.732  0.00  0.00    +0.000 C 
ATOM     37  C   TYR D   5     -24.130 -11.446   8.410  0.00  0.00    +0.000 C 
ATOM     38  O   TYR D   5     -24.124 -12.086   7.349  0.00  0.00    +0.000 OA
ATOM     39  CB  TYR D   5     -22.754 -12.837   9.943  0.00  0.00    +0.000 C 
ATOM     40  CG  TYR D   5     -22.628 -13.602  11.239  0.00  0.00    +0.000 A 
ATOM     41  CD1 TYR D   5     -23.123 -14.904  11.362  0.00  0.00    +0.000 A 
ATOM     42  CD2 TYR D   5     -22.060 -13.014  12.360  0.00  0.00    +0.000 A 
ATOM     43  CE1 TYR D   5     -23.130 -15.553  12.594  0.00  0.00    +0.000 A 
ATOM     44  CE2 TYR D   5     -21.978 -13.688  13.567  0.00  0.00    +0.000 A 
ATOM     45  CZ  TYR D   5     -22.534 -14.944  13.687  0.00  0.00    +0.000 A 
ATOM     46  OH  TYR D   5     -22.447 -15.552  14.928  0.00  0.00    +0.000 OA
ATOM     47  HH  TYR D   5     -22.458 -16.535  14.976  0.00  0.00    +0.000 HD
ATOM     48  N   VAL D   6     -24.156 -10.102   8.442  0.00  0.00    +0.000 N 
ATOM     49  H   VAL D   6     -24.121  -9.604   9.320  0.00  0.00    +0.000 HD
ATOM     50  CA  VAL D   6     -24.340  -9.353   7.219  0.00  0.00    +0.000 C 
ATOM     51  C   VAL D   6     -23.262  -8.294   7.082  0.00  0.00    +0.000 C 
ATOM     52  O   VAL D   6     -23.003  -7.540   8.009  0.00  0.00    +0.000 OA
ATOM     53  CB  VAL D   6     -25.728  -8.665   7.200  0.00  0.00    +0.000 C 
ATOM     54  CG1 VAL D   6     -26.071  -8.160   5.815  0.00  0.00    +0.000 C 
ATOM     55  CG2 VAL D   6     -26.815  -9.612   7.716  0.00  0.00    +0.000 C 
ATOM     56  N   NME D   7     -22.683  -8.220   5.915  0.00  0.00    +0.000 N 
ATOM     57  H   NME D   7     -22.917  -8.928   5.227  0.00  0.00    +0.000 HD
ATOM     58  C   NME D   7     -21.726  -7.158   5.567  0.00  0.00    +0.000 C 
TER 
