REMARK  Name = /data/user_data/xianyang/t3-aimnet-affinity-balanced/L3/A0A1D8PKB4/pocket.pdb
REMARK                            x       y       z     vdW  Elec       q    Type
REMARK                         _______ _______ _______ _____ _____    ______ ____
ATOM      1  N   ILE A   1      29.314 -15.175 -20.778  0.00  0.00    +0.000 N 
ATOM      2  CA  ILE A   1      28.997 -16.574 -20.549  0.00  0.00    +0.000 C 
ATOM      3  C   ILE A   1      27.515 -16.859 -20.708  0.00  0.00    +0.000 C 
ATOM      4  O   ILE A   1      27.101 -18.012 -20.551  0.00  0.00    +0.000 OA
ATOM      5  CB  ILE A   1      29.491 -17.037 -19.162  0.00  0.00    +0.000 C 
ATOM      6  CG1 ILE A   1      28.541 -16.571 -18.053  0.00  0.00    +0.000 C 
ATOM      7  CG2 ILE A   1      30.923 -16.538 -18.904  0.00  0.00    +0.000 C 
ATOM      8  CD1 ILE A   1      28.879 -17.165 -16.679  0.00  0.00    +0.000 C 
ATOM      9  H   ILE A   1      28.977 -14.896 -21.700  0.00  0.00    +0.000 HD
ATOM     10  H   ILE A   1      30.324 -15.043 -20.731  0.00  0.00    +0.000 HD
ATOM     11  H   ILE A   1      28.863 -14.603 -20.064  0.00  0.00    +0.000 HD
TER 
REMARK  Name = /data/user_data/xianyang/t3-aimnet-affinity-balanced/L3/A0A1D8PKB4/pocket.pdb
REMARK                            x       y       z     vdW  Elec       q    Type
REMARK                         _______ _______ _______ _____ _____    ______ ____
ATOM      1  N   GLU B   1      23.750 -17.726 -20.857  0.00  0.00    +0.000 N 
ATOM      2  CA  GLU B   1      22.945 -18.869 -21.259  0.00  0.00    +0.000 C 
ATOM      3  C   GLU B   1      21.474 -18.613 -20.950  0.00  0.00    +0.000 C 
ATOM      4  O   GLU B   1      20.808 -17.855 -21.663  0.00  0.00    +0.000 OA
ATOM      5  CB  GLU B   1      23.416 -20.140 -20.551  0.00  0.00    +0.000 C 
ATOM      6  CG  GLU B   1      24.801 -20.618 -20.945  0.00  0.00    +0.000 C 
ATOM      7  CD  GLU B   1      24.803 -21.426 -22.229  0.00  0.00    +0.000 C 
ATOM      8  OE1 GLU B   1      24.532 -20.848 -23.302  0.00  0.00    +0.000 OA
ATOM      9  OE2 GLU B   1      25.076 -22.644 -22.162  0.00  0.00    +0.000 OA
ATOM     10  N   GLY B   2      20.961 -19.254 -19.900  0.00  0.00    +0.000 N 
ATOM     11  CA  GLY B   2      19.577 -19.046 -19.499  0.00  0.00    +0.000 C 
ATOM     12  C   GLY B   2      18.613 -19.362 -20.625  0.00  0.00    +0.000 C 
ATOM     13  O   GLY B   2      18.837 -20.268 -21.435  0.00  0.00    +0.000 OA
ATOM     14  H   GLU B   1      23.419 -16.891 -21.340  0.00  0.00    +0.000 HD
ATOM     15  H   GLU B   1      24.726 -17.895 -21.100  0.00  0.00    +0.000 HD
ATOM     16  H   GLU B   1      23.669 -17.591 -19.849  0.00  0.00    +0.000 HD
ATOM     17  H   GLY B   2      21.526 -19.877 -19.388  0.00  0.00    +0.000 HD
TER 
REMARK  Name = /data/user_data/xianyang/t3-aimnet-affinity-balanced/L3/A0A1D8PKB4/pocket.pdb
REMARK                            x       y       z     vdW  Elec       q    Type
REMARK                         _______ _______ _______ _____ _____    ______ ____
ATOM      1  N   ILE C   1      23.961 -13.184 -19.813  0.00  0.00    +0.000 N 
ATOM      2  CA  ILE C   1      24.737 -13.347 -18.591  0.00  0.00    +0.000 C 
ATOM      3  C   ILE C   1      26.196 -13.053 -18.907  0.00  0.00    +0.000 C 
ATOM      4  O   ILE C   1      26.713 -13.478 -19.946  0.00  0.00    +0.000 OA
ATOM      5  CB  ILE C   1      24.586 -14.764 -17.999  0.00  0.00    +0.000 C 
ATOM      6  CG1 ILE C   1      23.184 -15.316 -18.272  0.00  0.00    +0.000 C 
ATOM      7  CG2 ILE C   1      24.928 -14.757 -16.524  0.00  0.00    +0.000 C 
ATOM      8  CD1 ILE C   1      22.080 -14.673 -17.450  0.00  0.00    +0.000 C 
ATOM      9  H   ILE C   1      24.087 -12.238 -20.172  0.00  0.00    +0.000 HD
ATOM     10  H   ILE C   1      22.974 -13.343 -19.613  0.00  0.00    +0.000 HD
ATOM     11  H   ILE C   1      24.279 -13.857 -20.510  0.00  0.00    +0.000 HD
TER 
REMARK  Name = /data/user_data/xianyang/t3-aimnet-affinity-balanced/L3/A0A1D8PKB4/pocket.pdb
REMARK                            x       y       z     vdW  Elec       q    Type
REMARK                         _______ _______ _______ _____ _____    ______ ____
ATOM      1  N   ALA D   1      28.702 -12.205 -11.396  0.00  0.00    +0.000 N 
ATOM      2  CA  ALA D   1      27.930 -12.680 -12.540  0.00  0.00    +0.000 C 
ATOM      3  C   ALA D   1      26.892 -11.617 -12.878  0.00  0.00    +0.000 C 
ATOM      4  O   ALA D   1      25.947 -11.399 -12.112  0.00  0.00    +0.000 OA
ATOM      5  CB  ALA D   1      27.270 -14.022 -12.236  0.00  0.00    +0.000 C 
ATOM      6  N   ILE D   2      27.067 -10.959 -14.021  0.00  0.00    +0.000 N 
ATOM      7  CA  ILE D   2      26.217  -9.850 -14.435  0.00  0.00    +0.000 C 
ATOM      8  C   ILE D   2      25.172 -10.370 -15.411  0.00  0.00    +0.000 C 
ATOM      9  O   ILE D   2      25.507 -11.062 -16.381  0.00  0.00    +0.000 OA
ATOM     10  CB  ILE D   2      27.047  -8.722 -15.070  0.00  0.00    +0.000 C 
ATOM     11  CG1 ILE D   2      28.253  -8.383 -14.193  0.00  0.00    +0.000 C 
ATOM     12  CG2 ILE D   2      26.192  -7.490 -15.271  0.00  0.00    +0.000 C 
ATOM     13  CD1 ILE D   2      29.185  -7.363 -14.817  0.00  0.00    +0.000 C 
ATOM     14  N   LYS D   3      23.909 -10.037 -15.159  0.00  0.00    +0.000 N 
ATOM     15  CA  LYS D   3      22.795 -10.466 -15.992  0.00  0.00    +0.000 C 
ATOM     16  C   LYS D   3      22.151  -9.253 -16.646  0.00  0.00    +0.000 C 
ATOM     17  O   LYS D   3      21.775  -8.298 -15.955  0.00  0.00    +0.000 OA
ATOM     18  CB  LYS D   3      21.759 -11.236 -15.170  0.00  0.00    +0.000 C 
ATOM     19  CG  LYS D   3      20.573 -11.736 -15.979  0.00  0.00    +0.000 C 
ATOM     20  CD  LYS D   3      19.673 -12.626 -15.137  0.00  0.00    +0.000 C 
ATOM     21  CE  LYS D   3      18.521 -13.195 -15.950  0.00  0.00    +0.000 C 
ATOM     22  NZ  LYS D   3      17.645 -14.075 -15.125  0.00  0.00    +0.000 N 
ATOM     23  H   ALA D   1      29.132 -11.309 -11.624  0.00  0.00    +0.000 HD
ATOM     24  H   ALA D   1      29.430 -12.884 -11.171  0.00  0.00    +0.000 HD
ATOM     25  H   ALA D   1      28.084 -12.091 -10.593  0.00  0.00    +0.000 HD
ATOM     26  H   ILE D   2      27.804 -11.234 -14.614  0.00  0.00    +0.000 HD
ATOM     27  H   LYS D   3      23.719  -9.475 -14.373  0.00  0.00    +0.000 HD
ATOM     28  H   LYS D   3      18.189 -14.862 -14.773  0.00  0.00    +0.000 HD
ATOM     29  H   LYS D   3      16.876 -14.423 -15.698  0.00  0.00    +0.000 HD
ATOM     30  H   LYS D   3      17.270 -13.542 -14.340  0.00  0.00    +0.000 HD
TER 
REMARK  Name = /data/user_data/xianyang/t3-aimnet-affinity-balanced/L3/A0A1D8PKB4/pocket.pdb
REMARK                            x       y       z     vdW  Elec       q    Type
REMARK                         _______ _______ _______ _____ _____    ______ ____
ATOM      1  N   LEU E   1      13.612  -9.473 -14.519  0.00  0.00    +0.000 N 
ATOM      2  CA  LEU E   1      14.832  -9.231 -13.758  0.00  0.00    +0.000 C 
ATOM      3  C   LEU E   1      14.596  -8.335 -12.550  0.00  0.00    +0.000 C 
ATOM      4  O   LEU E   1      15.389  -8.370 -11.604  0.00  0.00    +0.000 OA
ATOM      5  CB  LEU E   1      15.901  -8.619 -14.665  0.00  0.00    +0.000 C 
ATOM      6  CG  LEU E   1      17.334  -8.694 -14.139  0.00  0.00    +0.000 C 
ATOM      7  CD2 LEU E   1      17.584 -10.068 -13.547  0.00  0.00    +0.000 C 
ATOM      8  CD1 LEU E   1      18.322  -8.404 -15.257  0.00  0.00    +0.000 C 
ATOM      9  H   LEU E   1      13.822 -10.076 -15.315  0.00  0.00    +0.000 HD
ATOM     10  H   LEU E   1      13.239  -8.585 -14.854  0.00  0.00    +0.000 HD
ATOM     11  H   LEU E   1      12.922  -9.927 -13.920  0.00  0.00    +0.000 HD
TER 
REMARK  Name = /data/user_data/xianyang/t3-aimnet-affinity-balanced/L3/A0A1D8PKB4/pocket.pdb
REMARK                            x       y       z     vdW  Elec       q    Type
REMARK                         _______ _______ _______ _____ _____    ______ ____
ATOM      1  N   GLU F   1      13.417 -10.836  -9.778  0.00  0.00    +0.000 N 
ATOM      2  CA  GLU F   1      14.486 -11.752  -9.392  0.00  0.00    +0.000 C 
ATOM      3  C   GLU F   1      15.478 -11.078  -8.455  0.00  0.00    +0.000 C 
ATOM      4  O   GLU F   1      16.027 -11.729  -7.558  0.00  0.00    +0.000 OA
ATOM      5  CB  GLU F   1      15.202 -12.287 -10.634  0.00  0.00    +0.000 C 
ATOM      6  CG  GLU F   1      16.161 -13.433 -10.349  0.00  0.00    +0.000 C 
ATOM      7  CD  GLU F   1      16.634 -14.132 -11.610  0.00  0.00    +0.000 C 
ATOM      8  OE1 GLU F   1      17.322 -13.489 -12.431  0.00  0.00    +0.000 OA
ATOM      9  OE2 GLU F   1      16.309 -15.326 -11.782  0.00  0.00    +0.000 OA
ATOM     10  H   GLU F   1      12.769 -11.314 -10.404  0.00  0.00    +0.000 HD
ATOM     11  H   GLU F   1      13.817 -10.028 -10.255  0.00  0.00    +0.000 HD
ATOM     12  H   GLU F   1      12.918 -10.526  -8.944  0.00  0.00    +0.000 HD
TER 
REMARK  Name = /data/user_data/xianyang/t3-aimnet-affinity-balanced/L3/A0A1D8PKB4/pocket.pdb
REMARK                            x       y       z     vdW  Elec       q    Type
REMARK                         _______ _______ _______ _____ _____    ______ ____
ATOM      1  N   TYR G   1      16.510 -12.622  -4.515  0.00  0.00    +0.000 N 
ATOM      2  CA  TYR G   1      17.790 -12.877  -3.860  0.00  0.00    +0.000 C 
ATOM      3  C   TYR G   1      17.886 -12.130  -2.538  0.00  0.00    +0.000 C 
ATOM      4  O   TYR G   1      18.435 -12.651  -1.559  0.00  0.00    +0.000 OA
ATOM      5  CB  TYR G   1      18.945 -12.482  -4.782  0.00  0.00    +0.000 C 
ATOM      6  CG  TYR G   1      19.168 -13.420  -5.949  0.00  0.00    +0.000 A 
ATOM      7  CD2 TYR G   1      19.742 -14.670  -5.761  0.00  0.00    +0.000 A 
ATOM      8  CD1 TYR G   1      18.822 -13.046  -7.241  0.00  0.00    +0.000 A 
ATOM      9  CE2 TYR G   1      19.953 -15.528  -6.825  0.00  0.00    +0.000 A 
ATOM     10  CE1 TYR G   1      19.031 -13.897  -8.311  0.00  0.00    +0.000 A 
ATOM     11  CZ  TYR G   1      19.596 -15.136  -8.098  0.00  0.00    +0.000 A 
ATOM     12  OH  TYR G   1      19.807 -15.987  -9.159  0.00  0.00    +0.000 OA
ATOM     13  H   TYR G   1      16.472 -13.133  -5.397  0.00  0.00    +0.000 HD
ATOM     14  H   TYR G   1      16.414 -11.623  -4.697  0.00  0.00    +0.000 HD
ATOM     15  H   TYR G   1      15.750 -12.932  -3.909  0.00  0.00    +0.000 HD
ATOM     16  H   TYR G   1      19.566 -15.724 -10.025  0.00  0.00    +0.000 HD
TER 
REMARK  Name = /data/user_data/xianyang/t3-aimnet-affinity-balanced/L3/A0A1D8PKB4/pocket.pdb
REMARK                            x       y       z     vdW  Elec       q    Type
REMARK                         _______ _______ _______ _____ _____    ______ ____
ATOM      1  N   PRO H   1      23.370 -16.806  -3.834  0.00  0.00    +0.000 N 
ATOM      2  CA  PRO H   1      24.314 -15.704  -4.029  0.00  0.00    +0.000 C 
ATOM      3  C   PRO H   1      23.744 -14.383  -3.539  0.00  0.00    +0.000 C 
ATOM      4  O   PRO H   1      22.534 -14.146  -3.576  0.00  0.00    +0.000 OA
ATOM      5  CB  PRO H   1      24.533 -15.688  -5.546  0.00  0.00    +0.000 C 
ATOM      6  CG  PRO H   1      23.308 -16.322  -6.110  0.00  0.00    +0.000 C 
ATOM      7  CD  PRO H   1      22.882 -17.356  -5.110  0.00  0.00    +0.000 C 
ATOM      8  H   PRO H   1      23.836 -17.549  -3.313  0.00  0.00    +0.000 HD
ATOM      9  H   PRO H   1      22.566 -16.441  -3.323  0.00  0.00    +0.000 HD
TER 
REMARK  Name = /data/user_data/xianyang/t3-aimnet-affinity-balanced/L3/A0A1D8PKB4/pocket.pdb
REMARK                            x       y       z     vdW  Elec       q    Type
REMARK                         _______ _______ _______ _____ _____    ______ ____
ATOM      1  N   LEU I   1      21.507  -6.922 -13.221  0.00  0.00    +0.000 N 
ATOM      2  CA  LEU I   1      21.523  -7.516 -11.891  0.00  0.00    +0.000 C 
ATOM      3  C   LEU I   1      22.889  -8.136 -11.641  0.00  0.00    +0.000 C 
ATOM      4  O   LEU I   1      23.367  -8.941 -12.447  0.00  0.00    +0.000 OA
ATOM      5  CB  LEU I   1      20.427  -8.575 -11.729  0.00  0.00    +0.000 C 
ATOM      6  CG  LEU I   1      20.516  -9.431 -10.462  0.00  0.00    +0.000 C 
ATOM      7  CD2 LEU I   1      20.519  -8.565  -9.213  0.00  0.00    +0.000 C 
ATOM      8  CD1 LEU I   1      19.384 -10.444 -10.407  0.00  0.00    +0.000 C 
ATOM      9  N   VAL I   2      23.506  -7.765 -10.524  0.00  0.00    +0.000 N 
ATOM     10  CA  VAL I   2      24.830  -8.244 -10.149  0.00  0.00    +0.000 C 
ATOM     11  C   VAL I   2      24.691  -9.120  -8.911  0.00  0.00    +0.000 C 
ATOM     12  O   VAL I   2      24.214  -8.661  -7.865  0.00  0.00    +0.000 OA
ATOM     13  CB  VAL I   2      25.801  -7.080  -9.895  0.00  0.00    +0.000 C 
ATOM     14  CG2 VAL I   2      27.039  -7.570  -9.154  0.00  0.00    +0.000 C 
ATOM     15  CG1 VAL I   2      26.190  -6.423 -11.211  0.00  0.00    +0.000 C 
ATOM     16  N   ILE I   3      25.097 -10.384  -9.036  0.00  0.00    +0.000 N 
ATOM     17  CA  ILE I   3      25.207 -11.281  -7.890  0.00  0.00    +0.000 C 
ATOM     18  C   ILE I   3      26.559 -11.979  -7.933  0.00  0.00    +0.000 C 
ATOM     19  O   ILE I   3      27.440 -11.609  -8.718  0.00  0.00    +0.000 OA
ATOM     20  CB  ILE I   3      24.063 -12.314  -7.843  0.00  0.00    +0.000 C 
ATOM     21  CG1 ILE I   3      23.808 -12.923  -9.225  0.00  0.00    +0.000 C 
ATOM     22  CG2 ILE I   3      22.800 -11.696  -7.262  0.00  0.00    +0.000 C 
ATOM     23  CD1 ILE I   3      22.797 -14.056  -9.195  0.00  0.00    +0.000 C 
ATOM     24  N   ASP I   4      26.726 -12.996  -7.093  0.00  0.00    +0.000 N 
ATOM     25  CA  ASP I   4      27.986 -13.721  -7.030  0.00  0.00    +0.000 C 
ATOM     26  C   ASP I   4      28.148 -14.627  -8.243  0.00  0.00    +0.000 C 
ATOM     27  O   ASP I   4      27.227 -15.362  -8.614  0.00  0.00    +0.000 OA
ATOM     28  CB  ASP I   4      28.060 -14.546  -5.746  0.00  0.00    +0.000 C 
ATOM     29  CG  ASP I   4      28.486 -13.725  -4.549  0.00  0.00    +0.000 C 
ATOM     30  OD1 ASP I   4      29.343 -12.834  -4.718  0.00  0.00    +0.000 OA
ATOM     31  OD2 ASP I   4      27.964 -13.972  -3.441  0.00  0.00    +0.000 OA
ATOM     32  N   LEU I   5      29.320 -14.557  -8.868  0.00  0.00    +0.000 N 
ATOM     33  CA  LEU I   5      29.718 -15.557  -9.846  0.00  0.00    +0.000 C 
ATOM     34  C   LEU I   5      29.973 -16.889  -9.147  0.00  0.00    +0.000 C 
ATOM     35  O   LEU I   5      30.447 -16.937  -8.010  0.00  0.00    +0.000 OA
ATOM     36  CB  LEU I   5      30.971 -15.092 -10.591  0.00  0.00    +0.000 C 
ATOM     37  CG  LEU I   5      31.554 -15.938 -11.723  0.00  0.00    +0.000 C 
ATOM     38  CD1 LEU I   5      30.793 -15.715 -13.020  0.00  0.00    +0.000 C 
ATOM     39  CD2 LEU I   5      33.029 -15.614 -11.897  0.00  0.00    +0.000 C 
ATOM     40  N   LEU I   6      29.642 -17.981  -9.832  0.00  0.00    +0.000 N 
ATOM     41  CA  LEU I   6      29.780 -19.310  -9.253  0.00  0.00    +0.000 C 
ATOM     42  C   LEU I   6      30.374 -20.254 -10.290  0.00  0.00    +0.000 C 
ATOM     43  O   LEU I   6      30.574 -19.892 -11.453  0.00  0.00    +0.000 OA
ATOM     44  CB  LEU I   6      28.434 -19.824  -8.730  0.00  0.00    +0.000 C 
ATOM     45  CG  LEU I   6      27.995 -19.249  -7.381  0.00  0.00    +0.000 C 
ATOM     46  CD1 LEU I   6      26.561 -19.625  -7.081  0.00  0.00    +0.000 C 
ATOM     47  CD2 LEU I   6      28.920 -19.731  -6.271  0.00  0.00    +0.000 C 
ATOM     48  N   GLY I   7      30.658 -21.480  -9.855  0.00  0.00    +0.000 N 
ATOM     49  CA  GLY I   7      31.256 -22.476 -10.710  0.00  0.00    +0.000 C 
ATOM     50  C   GLY I   7      30.252 -23.122 -11.642  0.00  0.00    +0.000 C 
ATOM     51  O   GLY I   7      29.116 -22.659 -11.789  0.00  0.00    +0.000 OA
ATOM     52  H   LEU I   1      20.593  -6.504 -13.396  0.00  0.00    +0.000 HD
ATOM     53  H   LEU I   1      21.689  -7.644 -13.918  0.00  0.00    +0.000 HD
ATOM     54  H   LEU I   1      22.227  -6.202 -13.281  0.00  0.00    +0.000 HD
ATOM     55  H   VAL I   2      23.047  -7.137  -9.921  0.00  0.00    +0.000 HD
ATOM     56  H   ILE I   3      25.330 -10.723  -9.930  0.00  0.00    +0.000 HD
ATOM     57  H   ASP I   4      25.984 -13.263  -6.503  0.00  0.00    +0.000 HD
ATOM     58  H   LEU I   5      29.931 -13.812  -8.664  0.00  0.00    +0.000 HD
ATOM     59  H   LEU I   6      29.297 -17.888 -10.749  0.00  0.00    +0.000 HD
ATOM     60  H   GLY I   7      30.453 -21.714  -8.921  0.00  0.00    +0.000 HD
TER 
REMARK  Name = /data/user_data/xianyang/t3-aimnet-affinity-balanced/L3/A0A1D8PKB4/pocket.pdb
REMARK                            x       y       z     vdW  Elec       q    Type
REMARK                         _______ _______ _______ _____ _____    ______ ____
ATOM      1  N   SER J   1      27.567 -25.754 -13.492  0.00  0.00    +0.000 N 
ATOM      2  CA  SER J   1      26.328 -26.365 -13.044  0.00  0.00    +0.000 C 
ATOM      3  CB  SER J   1      26.510 -27.868 -12.858  0.00  0.00    +0.000 C 
ATOM      4  OG  SER J   1      27.478 -28.469 -13.333  0.00  0.00    +0.000 OA
ATOM      5  C   SER J   1      25.199 -26.103 -14.042  0.00  0.00    +0.000 C 
ATOM      6  O   SER J   1      25.421 -26.801 -15.257  0.00  0.00    +0.000 OA
ATOM      7  H   SER J   1      27.428 -24.751 -13.611  0.00  0.00    +0.000 HD
ATOM      8  H   SER J   1      27.847 -26.166 -14.382  0.00  0.00    +0.000 HD
ATOM      9  H   SER J   1      28.296 -25.916 -12.798  0.00  0.00    +0.000 HD
ATOM     10  H   SER J   1      25.452 -27.754 -15.081  0.00  0.00    +0.000 HD
TER 
REMARK  Name = /data/user_data/xianyang/t3-aimnet-affinity-balanced/L3/A0A1D8PKB4/pocket.pdb
REMARK                            x       y       z     vdW  Elec       q    Type
REMARK                         _______ _______ _______ _____ _____    ______ ____
ATOM      1  N   LYS K   1      16.067 -27.840 -12.290  0.00  0.00    +0.000 N 
ATOM      2  CA  LYS K   1      16.883 -28.457 -13.331  0.00  0.00    +0.000 C 
ATOM      3  C   LYS K   1      18.356 -28.400 -12.931  0.00  0.00    +0.000 C 
ATOM      4  O   LYS K   1      18.773 -27.467 -12.234  0.00  0.00    +0.000 OA
ATOM      5  CB  LYS K   1      16.660 -27.772 -14.685  0.00  0.00    +0.000 C 
ATOM      6  CG  LYS K   1      17.541 -26.562 -14.945  0.00  0.00    +0.000 C 
ATOM      7  CD  LYS K   1      17.278 -25.958 -16.317  0.00  0.00    +0.000 C 
ATOM      8  CE  LYS K   1      15.960 -25.204 -16.350  0.00  0.00    +0.000 C 
ATOM      9  NZ  LYS K   1      15.772 -24.489 -17.642  0.00  0.00    +0.000 N 
ATOM     10  H   LYS K   1      15.084 -27.880 -12.560  0.00  0.00    +0.000 HD
ATOM     11  H   LYS K   1      16.348 -26.867 -12.170  0.00  0.00    +0.000 HD
ATOM     12  H   LYS K   1      16.199 -28.342 -11.412  0.00  0.00    +0.000 HD
ATOM     13  H   LYS K   1      15.761 -25.165 -18.406  0.00  0.00    +0.000 HD
ATOM     14  H   LYS K   1      16.539 -23.831 -17.781  0.00  0.00    +0.000 HD
ATOM     15  H   LYS K   1      14.887 -23.981 -17.624  0.00  0.00    +0.000 HD
TER 
REMARK  Name = /data/user_data/xianyang/t3-aimnet-affinity-balanced/L3/A0A1D8PKB4/pocket.pdb
REMARK                            x       y       z     vdW  Elec       q    Type
REMARK                         _______ _______ _______ _____ _____    ______ ____
ATOM      1  N   ASP L   1      20.819 -27.471 -14.515  0.00  0.00    +0.000 N 
ATOM      2  CA  ASP L   1      21.496 -26.302 -15.057  0.00  0.00    +0.000 C 
ATOM      3  C   ASP L   1      21.446 -25.109 -14.112  0.00  0.00    +0.000 C 
ATOM      4  O   ASP L   1      22.216 -24.160 -14.299  0.00  0.00    +0.000 OA
ATOM      5  CB  ASP L   1      20.880 -25.921 -16.403  0.00  0.00    +0.000 C 
ATOM      6  CG  ASP L   1      20.705 -27.114 -17.322  0.00  0.00    +0.000 C 
ATOM      7  OD2 ASP L   1      20.242 -28.171 -16.844  0.00  0.00    +0.000 OA
ATOM      8  OD1 ASP L   1      21.021 -26.992 -18.525  0.00  0.00    +0.000 OA
ATOM      9  N   ASN L   2      20.573 -25.139 -13.105  0.00  0.00    +0.000 N 
ATOM     10  CA  ASN L   2      20.413 -24.037 -12.167  0.00  0.00    +0.000 C 
ATOM     11  C   ASN L   2      21.057 -24.297 -10.812  0.00  0.00    +0.000 C 
ATOM     12  O   ASN L   2      21.005 -23.422  -9.942  0.00  0.00    +0.000 OA
ATOM     13  CB  ASN L   2      18.925 -23.719 -11.978  0.00  0.00    +0.000 C 
ATOM     14  CG  ASN L   2      18.311 -23.057 -13.196  0.00  0.00    +0.000 C 
ATOM     15  OD1 ASN L   2      18.951 -22.941 -14.241  0.00  0.00    +0.000 OA
ATOM     16  ND2 ASN L   2      17.064 -22.622 -13.068  0.00  0.00    +0.000 N 
ATOM     17  H   ASP L   1      20.880 -28.240 -15.183  0.00  0.00    +0.000 HD
ATOM     18  H   ASP L   1      19.839 -27.247 -14.343  0.00  0.00    +0.000 HD
ATOM     19  H   ASP L   1      21.263 -27.746 -13.639  0.00  0.00    +0.000 HD
ATOM     20  H   ASN L   2      20.013 -25.940 -12.991  0.00  0.00    +0.000 HD
ATOM     21  H   ASN L   2      16.615 -22.184 -13.827  0.00  0.00    +0.000 HD
ATOM     22  H   ASN L   2      16.588 -22.737 -12.214  0.00  0.00    +0.000 HD
TER 
REMARK  Name = /data/user_data/xianyang/t3-aimnet-affinity-balanced/L3/A0A1D8PKB4/pocket.pdb
REMARK                            x       y       z     vdW  Elec       q    Type
REMARK                         _______ _______ _______ _____ _____    ______ ____
ATOM      1  N   LEU M   1      24.574 -24.751  -9.083  0.00  0.00    +0.000 N 
ATOM      2  CA  LEU M   1      25.988 -24.537  -9.341  0.00  0.00    +0.000 C 
ATOM      3  C   LEU M   1      26.815 -24.867  -8.105  0.00  0.00    +0.000 C 
ATOM      4  O   LEU M   1      26.349 -24.732  -6.969  0.00  0.00    +0.000 OA
ATOM      5  CB  LEU M   1      26.267 -23.088  -9.757  0.00  0.00    +0.000 C 
ATOM      6  CG  LEU M   1      25.310 -22.368 -10.709  0.00  0.00    +0.000 C 
ATOM      7  CD2 LEU M   1      25.873 -20.999 -11.082  0.00  0.00    +0.000 C 
ATOM      8  CD1 LEU M   1      25.035 -23.190 -11.954  0.00  0.00    +0.000 C 
ATOM      9  H   LEU M   1      24.038 -24.525  -9.921  0.00  0.00    +0.000 HD
ATOM     10  H   LEU M   1      24.274 -24.151  -8.315  0.00  0.00    +0.000 HD
ATOM     11  H   LEU M   1      24.418 -25.727  -8.832  0.00  0.00    +0.000 HD
TER 
REMARK  Name = /data/user_data/xianyang/t3-aimnet-affinity-balanced/L3/A0A1D8PKB4/pocket.pdb
REMARK                            x       y       z     vdW  Elec       q    Type
REMARK                         _______ _______ _______ _____ _____    ______ ____
ATOM      1  N   ILE N   1      20.377 -20.832  -8.045  0.00  0.00    +0.000 N 
ATOM      2  CA  ILE N   1      20.308 -19.547  -8.727  0.00  0.00    +0.000 C 
ATOM      3  C   ILE N   1      19.081 -19.543  -9.633  0.00  0.00    +0.000 C 
ATOM      4  O   ILE N   1      18.318 -20.510  -9.682  0.00  0.00    +0.000 OA
ATOM      5  CB  ILE N   1      21.582 -19.254  -9.544  0.00  0.00    +0.000 C 
ATOM      6  CG1 ILE N   1      21.877 -20.424 -10.480  0.00  0.00    +0.000 C 
ATOM      7  CG2 ILE N   1      22.766 -18.995  -8.625  0.00  0.00    +0.000 C 
ATOM      8  CD1 ILE N   1      22.221 -20.013 -11.876  0.00  0.00    +0.000 C 
ATOM      9  N   ASP N   2      18.900 -18.434 -10.357  0.00  0.00    +0.000 N 
ATOM     10  CA  ASP N   2      17.834 -18.273 -11.344  0.00  0.00    +0.000 C 
ATOM     11  C   ASP N   2      16.454 -18.441 -10.719  0.00  0.00    +0.000 C 
ATOM     12  O   ASP N   2      15.905 -19.548 -10.694  0.00  0.00    +0.000 OA
ATOM     13  CB  ASP N   2      18.020 -19.263 -12.500  0.00  0.00    +0.000 C 
ATOM     14  CG  ASP N   2      17.211 -18.889 -13.735  0.00  0.00    +0.000 C 
ATOM     15  OD2 ASP N   2      16.145 -18.253 -13.595  0.00  0.00    +0.000 OA
ATOM     16  OD1 ASP N   2      17.646 -19.236 -14.853  0.00  0.00    +0.000 OA
ATOM     17  H   ILE N   1      19.517 -20.984  -7.519  0.00  0.00    +0.000 HD
ATOM     18  H   ILE N   1      21.172 -20.835  -7.406  0.00  0.00    +0.000 HD
ATOM     19  H   ILE N   1      20.491 -21.576  -8.733  0.00  0.00    +0.000 HD
ATOM     20  H   ASP N   2      19.520 -17.682 -10.217  0.00  0.00    +0.000 HD
TER 
