REMARK  Name = /data/user_data/xianyang/t3-aimnet-affinity-balanced/L3/P05556/pocket.pdb
REMARK                            x       y       z     vdW  Elec       q    Type
REMARK                         _______ _______ _______ _____ _____    ______ ____
ATOM      1  N   ASP A   1       8.568 125.969  44.733  0.00  0.00    +0.000 N 
ATOM      2  CA  ASP A   1       8.119 124.783  44.016  0.00  0.00    +0.000 C 
ATOM      3  C   ASP A   1       6.674 124.995  43.556  0.00  0.00    +0.000 C 
ATOM      4  O   ASP A   1       5.787 125.246  44.379  0.00  0.00    +0.000 OA
ATOM      5  CB  ASP A   1       8.236 123.567  44.938  0.00  0.00    +0.000 C 
ATOM      6  CG  ASP A   1       7.963 122.241  44.234  0.00  0.00    +0.000 C 
ATOM      7  OD1 ASP A   1       7.332 122.227  43.152  0.00  0.00    +0.000 OA
ATOM      8  OD2 ASP A   1       8.383 121.197  44.782  0.00  0.00    +0.000 OA
ATOM      9  H   ASP A   1       8.493 126.784  44.124  0.00  0.00    +0.000 HD
ATOM     10  H   ASP A   1       9.540 125.846  45.018  0.00  0.00    +0.000 HD
ATOM     11  H   ASP A   1       7.986 126.107  45.559  0.00  0.00    +0.000 HD
TER 
REMARK  Name = /data/user_data/xianyang/t3-aimnet-affinity-balanced/L3/P05556/pocket.pdb
REMARK                            x       y       z     vdW  Elec       q    Type
REMARK                         _______ _______ _______ _____ _____    ______ ____
ATOM      1  N   SER B   1       5.076 122.586  41.593  0.00  0.00    +0.000 N 
ATOM      2  CA  SER B   1       4.464 121.318  41.234  0.00  0.00    +0.000 C 
ATOM      3  C   SER B   1       3.100 121.197  41.922  0.00  0.00    +0.000 C 
ATOM      4  O   SER B   1       2.720 122.025  42.754  0.00  0.00    +0.000 OA
ATOM      5  CB  SER B   1       5.403 120.156  41.582  0.00  0.00    +0.000 C 
ATOM      6  OG  SER B   1       5.654 120.055  42.977  0.00  0.00    +0.000 OA
ATOM      7  N   TYR B   2       2.345 120.156  41.555  0.00  0.00    +0.000 N 
ATOM      8  CA  TYR B   2       0.932 120.119  41.929  0.00  0.00    +0.000 C 
ATOM      9  C   TYR B   2       0.731 119.999  43.434  0.00  0.00    +0.000 C 
ATOM     10  O   TYR B   2      -0.264 120.507  43.963  0.00  0.00    +0.000 OA
ATOM     11  CB  TYR B   2       0.210 118.976  41.218  0.00  0.00    +0.000 C 
ATOM     12  CG  TYR B   2      -1.281 119.006  41.459  0.00  0.00    +0.000 A 
ATOM     13  CD1 TYR B   2      -2.080 119.974  40.861  0.00  0.00    +0.000 A 
ATOM     14  CD2 TYR B   2      -1.886 118.086  42.305  0.00  0.00    +0.000 A 
ATOM     15  CE1 TYR B   2      -3.444 120.017  41.086  0.00  0.00    +0.000 A 
ATOM     16  CE2 TYR B   2      -3.252 118.120  42.538  0.00  0.00    +0.000 A 
ATOM     17  CZ  TYR B   2      -4.024 119.087  41.926  0.00  0.00    +0.000 A 
ATOM     18  OH  TYR B   2      -5.380 119.126  42.156  0.00  0.00    +0.000 OA
ATOM     19  N   SER B   3       1.648 119.330  44.138  0.00  0.00    +0.000 N 
ATOM     20  CA  SER B   3       1.535 119.226  45.588  0.00  0.00    +0.000 C 
ATOM     21  C   SER B   3       1.646 120.582  46.277  0.00  0.00    +0.000 C 
ATOM     22  O   SER B   3       1.301 120.691  47.459  0.00  0.00    +0.000 OA
ATOM     23  CB  SER B   3       2.597 118.255  46.120  0.00  0.00    +0.000 C 
ATOM     24  OG  SER B   3       3.894 118.586  45.650  0.00  0.00    +0.000 OA
ATOM     25  N   MET B   4       2.097 121.611  45.563  0.00  0.00    +0.000 N 
ATOM     26  CA  MET B   4       2.203 122.968  46.076  0.00  0.00    +0.000 C 
ATOM     27  C   MET B   4       1.032 123.857  45.661  0.00  0.00    +0.000 C 
ATOM     28  O   MET B   4       1.141 125.085  45.753  0.00  0.00    +0.000 OA
ATOM     29  CB  MET B   4       3.521 123.588  45.613  0.00  0.00    +0.000 C 
ATOM     30  CG  MET B   4       4.767 122.882  46.142  0.00  0.00    +0.000 C 
ATOM     31  SD  MET B   4       4.998 123.116  47.909  0.00  0.00    +0.000 S 
ATOM     32  CE  MET B   4       5.350 124.871  47.957  0.00  0.00    +0.000 C 
ATOM     33  H   SER B   1       5.984 122.667  41.135  0.00  0.00    +0.000 HD
ATOM     34  H   SER B   1       5.200 122.629  42.604  0.00  0.00    +0.000 HD
ATOM     35  H   SER B   1       4.474 123.352  41.291  0.00  0.00    +0.000 HD
ATOM     36  H   SER B   1       6.088 120.865  43.287  0.00  0.00    +0.000 HD
ATOM     37  H   TYR B   2       2.739 119.418  41.036  0.00  0.00    +0.000 HD
ATOM     38  H   TYR B   2      -5.907 119.781  41.742  0.00  0.00    +0.000 HD
ATOM     39  H   SER B   3       2.405 118.904  43.675  0.00  0.00    +0.000 HD
ATOM     40  H   SER B   3       3.910 118.533  44.682  0.00  0.00    +0.000 HD
ATOM     41  H   MET B   4       2.375 121.444  44.633  0.00  0.00    +0.000 HD
TER 
REMARK  Name = /data/user_data/xianyang/t3-aimnet-affinity-balanced/L3/P05556/pocket.pdb
REMARK                            x       y       z     vdW  Elec       q    Type
REMARK                         _______ _______ _______ _____ _____    ______ ____
ATOM      1  N   VAL C   1       9.591 123.632  38.509  0.00  0.00    +0.000 N 
ATOM      2  CA  VAL C   1       8.970 122.313  38.617  0.00  0.00    +0.000 C 
ATOM      3  C   VAL C   1       9.999 121.199  38.419  0.00  0.00    +0.000 C 
ATOM      4  O   VAL C   1      10.392 120.535  39.382  0.00  0.00    +0.000 OA
ATOM      5  CB  VAL C   1       7.806 122.135  37.621  0.00  0.00    +0.000 C 
ATOM      6  CG1 VAL C   1       7.174 120.762  37.810  0.00  0.00    +0.000 C 
ATOM      7  CG2 VAL C   1       6.764 123.213  37.814  0.00  0.00    +0.000 C 
ATOM      8  H   VAL C   1       8.883 124.353  38.645  0.00  0.00    +0.000 HD
ATOM      9  H   VAL C   1      10.009 123.736  37.585  0.00  0.00    +0.000 HD
ATOM     10  H   VAL C   1      10.314 123.727  39.222  0.00  0.00    +0.000 HD
TER 
REMARK  Name = /data/user_data/xianyang/t3-aimnet-affinity-balanced/L3/P05556/pocket.pdb
REMARK                            x       y       z     vdW  Elec       q    Type
REMARK                         _______ _______ _______ _____ _____    ______ ____
ATOM      1  N   SER D   1       5.560 113.245  31.974  0.00  0.00    +0.000 N 
ATOM      2  CA  SER D   1       4.864 112.523  30.922  0.00  0.00    +0.000 C 
ATOM      3  C   SER D   1       4.997 113.277  29.608  0.00  0.00    +0.000 C 
ATOM      4  O   SER D   1       4.938 114.510  29.572  0.00  0.00    +0.000 OA
ATOM      5  CB  SER D   1       3.393 112.345  31.285  0.00  0.00    +0.000 C 
ATOM      6  OG  SER D   1       2.665 111.837  30.184  0.00  0.00    +0.000 OA
ATOM      7  H   SER D   1       6.541 113.357  31.718  0.00  0.00    +0.000 HD
ATOM      8  H   SER D   1       5.494 112.721  32.847  0.00  0.00    +0.000 HD
ATOM      9  H   SER D   1       5.134 114.164  32.095  0.00  0.00    +0.000 HD
ATOM     10  H   SER D   1       3.025 110.973  29.930  0.00  0.00    +0.000 HD
TER 
REMARK  Name = /data/user_data/xianyang/t3-aimnet-affinity-balanced/L3/P05556/pocket.pdb
REMARK                            x       y       z     vdW  Elec       q    Type
REMARK                         _______ _______ _______ _____ _____    ______ ____
ATOM      1  N   LYS E   1      -0.794 115.153  28.202  0.00  0.00    +0.000 N 
ATOM      2  CA  LYS E   1      -0.169 115.497  29.474  0.00  0.00    +0.000 C 
ATOM      3  C   LYS E   1       0.907 116.565  29.318  0.00  0.00    +0.000 C 
ATOM      4  O   LYS E   1       1.220 117.262  30.292  0.00  0.00    +0.000 OA
ATOM      5  CB  LYS E   1       0.400 114.243  30.124  0.00  0.00    +0.000 C 
ATOM      6  CG  LYS E   1      -0.669 113.245  30.554  0.00  0.00    +0.000 C 
ATOM      7  CD  LYS E   1      -1.478 113.719  31.755  0.00  0.00    +0.000 C 
ATOM      8  CE  LYS E   1      -2.489 112.652  32.187  0.00  0.00    +0.000 C 
ATOM      9  NZ  LYS E   1      -3.112 112.934  33.514  0.00  0.00    +0.000 N 
ATOM     10  H   LYS E   1      -1.173 115.996  27.771  0.00  0.00    +0.000 HD
ATOM     11  H   LYS E   1      -1.548 114.485  28.363  0.00  0.00    +0.000 HD
ATOM     12  H   LYS E   1      -0.098 114.738  27.583  0.00  0.00    +0.000 HD
ATOM     13  H   LYS E   1      -2.389 112.946  34.233  0.00  0.00    +0.000 HD
ATOM     14  H   LYS E   1      -3.795 112.208  33.730  0.00  0.00    +0.000 HD
ATOM     15  H   LYS E   1      -3.578 113.841  33.485  0.00  0.00    +0.000 HD
TER 
REMARK  Name = /data/user_data/xianyang/t3-aimnet-affinity-balanced/L3/P05556/pocket.pdb
REMARK                            x       y       z     vdW  Elec       q    Type
REMARK                         _______ _______ _______ _____ _____    ______ ____
ATOM      1  N   CYS F   1      -0.455 118.550  32.666  0.00  0.00    +0.000 N 
ATOM      2  CA  CYS F   1       0.105 117.339  33.283  0.00  0.00    +0.000 C 
ATOM      3  C   CYS F   1      -0.747 116.765  34.397  0.00  0.00    +0.000 C 
ATOM      4  O   CYS F   1      -0.479 115.637  34.830  0.00  0.00    +0.000 OA
ATOM      5  CB  CYS F   1       1.461 117.818  33.818  0.00  0.00    +0.000 C 
ATOM      6  CG  CYS F   1       1.254 119.273  34.097  0.00  0.00    +0.000 C 
ATOM      7  CD  CYS F   1       0.288 119.767  33.048  0.00  0.00    +0.000 C 
ATOM      8  N   CYS F   2      -1.776 117.468  34.854  0.00  0.00    +0.000 N 
ATOM      9  CA  CYS F   2      -2.549 116.993  35.988  0.00  0.00    +0.000 C 
ATOM     10  C   CYS F   2      -3.723 116.139  35.510  0.00  0.00    +0.000 C 
ATOM     11  O   CYS F   2      -3.877 115.844  34.319  0.00  0.00    +0.000 OA
ATOM     12  CB  CYS F   2      -3.012 118.173  36.838  0.00  0.00    +0.000 C 
ATOM     13  SG  CYS F   2      -1.665 119.179  37.466  0.00  0.00    +0.000 S 
ATOM     14  N   THR F   3      -4.586 115.762  36.449  0.00  0.00    +0.000 N 
ATOM     15  CA  THR F   3      -5.658 114.811  36.187  0.00  0.00    +0.000 C 
ATOM     16  C   THR F   3      -6.802 115.407  35.370  0.00  0.00    +0.000 C 
ATOM     17  O   THR F   3      -7.970 115.278  35.754  0.00  0.00    +0.000 OA
ATOM     18  CB  THR F   3      -6.182 114.253  37.517  0.00  0.00    +0.000 C 
ATOM     19  OG1 THR F   3      -6.817 115.297  38.263  0.00  0.00    +0.000 OA
ATOM     20  CG2 THR F   3      -5.032 113.681  38.353  0.00  0.00    +0.000 C 
ATOM     21  N   CYS F   1      -4.009 122.998  35.532  0.00  0.00    +0.000 N 
ATOM     22  CA  CYS F   1      -2.555 123.072  35.602  0.00  0.00    +0.000 C 
ATOM     23  C   CYS F   1      -1.957 123.528  34.279  0.00  0.00    +0.000 C 
ATOM     24  O   CYS F   1      -2.365 123.078  33.207  0.00  0.00    +0.000 OA
ATOM     25  CB  CYS F   1      -1.951 121.716  35.958  0.00  0.00    +0.000 C 
ATOM     26  SG  CYS F   1      -2.417 121.061  37.547  0.00  0.00    +0.000 S 
ATOM     27  H   CYS F   1      -0.419 118.448  31.652  0.00  0.00    +0.000 HD
ATOM     28  H   CYS F   1      -1.415 118.653  32.996  0.00  0.00    +0.000 HD
ATOM     29  H   CYS F   2      -2.017 118.318  34.421  0.00  0.00    +0.000 HD
ATOM     30  H   THR F   3      -4.497 116.139  37.354  0.00  0.00    +0.000 HD
ATOM     31  H   THR F   3      -6.172 115.997  38.453  0.00  0.00    +0.000 HD
ATOM     32  H   CYS F   1      -4.385 123.916  35.293  0.00  0.00    +0.000 HD
ATOM     33  H   CYS F   1      -4.378 122.704  36.436  0.00  0.00    +0.000 HD
ATOM     34  H   CYS F   1      -4.281 122.323  34.818  0.00  0.00    +0.000 HD
TER 
REMARK  Name = /data/user_data/xianyang/t3-aimnet-affinity-balanced/L3/P05556/pocket.pdb
REMARK                            x       y       z     vdW  Elec       q    Type
REMARK                         _______ _______ _______ _____ _____    ______ ____
ATOM      1  N   SER G   1       1.565 123.735  38.373  0.00  0.00    +0.000 N 
ATOM      2  CA  SER G   1       1.942 122.749  37.361  0.00  0.00    +0.000 C 
ATOM      3  C   SER G   1       1.990 121.363  38.005  0.00  0.00    +0.000 C 
ATOM      4  O   SER G   1       1.340 121.096  39.023  0.00  0.00    +0.000 OA
ATOM      5  CB  SER G   1       3.271 123.135  36.697  0.00  0.00    +0.000 C 
ATOM      6  OG  SER G   1       3.529 122.326  35.561  0.00  0.00    +0.000 OA
ATOM      7  N   GLY G   2       2.756 120.457  37.401  0.00  0.00    +0.000 N 
ATOM      8  CA  GLY G   2       2.859 119.089  37.892  0.00  0.00    +0.000 C 
ATOM      9  C   GLY G   2       3.858 118.309  37.063  0.00  0.00    +0.000 C 
ATOM     10  O   GLY G   2       4.326 118.768  36.016  0.00  0.00    +0.000 OA
ATOM     11  N   ASN G   3       4.183 117.116  37.553  0.00  0.00    +0.000 N 
ATOM     12  CA  ASN G   3       5.090 116.202  36.858  0.00  0.00    +0.000 C 
ATOM     13  C   ASN G   3       4.941 114.816  37.478  0.00  0.00    +0.000 C 
ATOM     14  O   ASN G   3       4.028 114.571  38.272  0.00  0.00    +0.000 OA
ATOM     15  CB  ASN G   3       6.546 116.692  36.908  0.00  0.00    +0.000 C 
ATOM     16  CG  ASN G   3       7.182 116.525  38.286  0.00  0.00    +0.000 C 
ATOM     17  OD1 ASN G   3       8.227 115.891  38.425  0.00  0.00    +0.000 OA
ATOM     18  ND2 ASN G   3       6.562 117.105  39.304  0.00  0.00    +0.000 N 
ATOM     19  N   LEU G   4       5.883 113.924  37.169  0.00  0.00    +0.000 N 
ATOM     20  CA  LEU G   4       5.704 112.498  37.426  0.00  0.00    +0.000 C 
ATOM     21  C   LEU G   4       6.380 112.005  38.702  0.00  0.00    +0.000 C 
ATOM     22  O   LEU G   4       5.706 111.411  39.549  0.00  0.00    +0.000 OA
ATOM     23  CB  LEU G   4       6.189 111.695  36.218  0.00  0.00    +0.000 C 
ATOM     24  CG  LEU G   4       5.161 111.712  35.087  0.00  0.00    +0.000 C 
ATOM     25  CD1 LEU G   4       5.544 110.736  33.999  0.00  0.00    +0.000 C 
ATOM     26  CD2 LEU G   4       3.773 111.401  35.631  0.00  0.00    +0.000 C 
ATOM     27  N   ASP G   5       7.698 112.191  38.848  0.00  0.00    +0.000 N 
ATOM     28  CA  ASP G   5       8.392 111.646  40.010  0.00  0.00    +0.000 C 
ATOM     29  C   ASP G   5       8.400 112.639  41.171  0.00  0.00    +0.000 C 
ATOM     30  O   ASP G   5       8.319 113.855  40.977  0.00  0.00    +0.000 OA
ATOM     31  CB  ASP G   5       9.823 111.217  39.663  0.00  0.00    +0.000 C 
ATOM     32  CG  ASP G   5      10.723 112.378  39.276  0.00  0.00    +0.000 C 
ATOM     33  OD2 ASP G   5      10.316 113.550  39.431  0.00  0.00    +0.000 OA
ATOM     34  OD1 ASP G   5      11.859 112.098  38.829  0.00  0.00    +0.000 OA
ATOM     35  N   SER G   6       8.508 112.098  42.396  0.00  0.00    +0.000 N 
ATOM     36  CA  SER G   6       8.297 112.925  43.586  0.00  0.00    +0.000 C 
ATOM     37  CB  SER G   6       9.392 113.967  43.800  0.00  0.00    +0.000 C 
ATOM     38  OG  SER G   6       9.054 115.153  43.949  0.00  0.00    +0.000 OA
ATOM     39  C   SER G   6       8.112 112.027  44.814  0.00  0.00    +0.000 C 
ATOM     40  O   SER G   6       7.929 112.793  45.993  0.00  0.00    +0.000 OA
ATOM     41  H   SER G   1       1.531 124.662  37.949  0.00  0.00    +0.000 HD
ATOM     42  H   SER G   1       2.254 123.730  39.125  0.00  0.00    +0.000 HD
ATOM     43  H   SER G   1       0.647 123.501  38.751  0.00  0.00    +0.000 HD
ATOM     44  H   SER G   1       2.821 122.449  34.909  0.00  0.00    +0.000 HD
ATOM     45  H   GLY G   2       3.267 120.718  36.601  0.00  0.00    +0.000 HD
ATOM     46  H   ASN G   3       3.799 116.837  38.416  0.00  0.00    +0.000 HD
ATOM     47  H   ASN G   3       5.727 117.604  39.152  0.00  0.00    +0.000 HD
ATOM     48  H   ASN G   3       6.936 117.037  40.212  0.00  0.00    +0.000 HD
ATOM     49  H   LEU G   4       6.721 114.235  36.757  0.00  0.00    +0.000 HD
ATOM     50  H   ASP G   5       8.200 112.697  38.169  0.00  0.00    +0.000 HD
ATOM     51  H   SER G   6       8.729 111.144  42.494  0.00  0.00    +0.000 HD
ATOM     52  H   SER G   6       8.713 113.344  46.145  0.00  0.00    +0.000 HD
TER 
REMARK  Name = /data/user_data/xianyang/t3-aimnet-affinity-balanced/L3/P05556/pocket.pdb
REMARK                            x       y       z     vdW  Elec       q    Type
REMARK                         _______ _______ _______ _____ _____    ______ ____
ATOM      1  N   GLU H   1      11.965 116.885  43.095  0.00  0.00    +0.000 N 
ATOM      2  CA  GLU H   1      11.775 117.929  42.097  0.00  0.00    +0.000 C 
ATOM      3  C   GLU H   1      13.111 118.485  41.608  0.00  0.00    +0.000 C 
ATOM      4  O   GLU H   1      14.185 118.059  42.031  0.00  0.00    +0.000 OA
ATOM      5  CB  GLU H   1      10.876 119.037  42.655  0.00  0.00    +0.000 C 
ATOM      6  CG  GLU H   1       9.529 118.546  43.229  0.00  0.00    +0.000 C 
ATOM      7  CD  GLU H   1       8.561 117.997  42.171  0.00  0.00    +0.000 C 
ATOM      8  OE1 GLU H   1       8.992 117.742  41.026  0.00  0.00    +0.000 OA
ATOM      9  OE2 GLU H   1       7.358 117.820  42.494  0.00  0.00    +0.000 OA
ATOM     10  H   GLU H   1      12.564 116.154  42.712  0.00  0.00    +0.000 HD
ATOM     11  H   GLU H   1      11.060 116.486  43.346  0.00  0.00    +0.000 HD
ATOM     12  H   GLU H   1      12.403 117.284  43.925  0.00  0.00    +0.000 HD
TER 
REMARK  Name = /data/user_data/xianyang/t3-aimnet-affinity-balanced/L3/P05556/pocket.pdb
REMARK                            x       y       z     vdW  Elec       q    Type
REMARK                         _______ _______ _______ _____ _____    ______ ____
ATOM      1  N   ASP I   1       8.016 120.974  48.978  0.00  0.00    +0.000 N 
ATOM      2  CA  ASP I   1       7.472 119.949  49.864  0.00  0.00    +0.000 C 
ATOM      3  C   ASP I   1       7.963 118.548  49.516  0.00  0.00    +0.000 C 
ATOM      4  O   ASP I   1       7.462 117.569  50.078  0.00  0.00    +0.000 OA
ATOM      5  CB  ASP I   1       5.936 119.987  49.860  0.00  0.00    +0.000 C 
ATOM      6  CG  ASP I   1       5.325 119.736  48.478  0.00  0.00    +0.000 C 
ATOM      7  OD1 ASP I   1       6.054 119.470  47.498  0.00  0.00    +0.000 OA
ATOM      8  OD2 ASP I   1       4.083 119.820  48.381  0.00  0.00    +0.000 OA
ATOM      9  H   ASP I   1       9.035 120.932  48.995  0.00  0.00    +0.000 HD
ATOM     10  H   ASP I   1       7.708 121.894  49.293  0.00  0.00    +0.000 HD
ATOM     11  H   ASP I   1       7.685 120.812  48.027  0.00  0.00    +0.000 HD
TER 
