REMARK  Name = /home/xianyang/aimnet2_score_pipelines/work/L1234-fixed-receptor-eint-20260921/L2/P43405/prepared.pdb
REMARK                            x       y       z     vdW  Elec       q    Type
REMARK                         _______ _______ _______ _____ _____    ______ ____
ATOM      1  CH3 ACE A   1      -1.028  -8.081   7.894  0.00  0.00    +0.000 C 
ATOM      2  C   ACE A   1      -0.433  -6.679   7.721  0.00  0.00    +0.000 C 
ATOM      3  O   ACE A   1       0.671  -6.393   8.199  0.00  0.00    +0.000 OA
ATOM      4  N   GLU A   2      -1.174  -5.823   7.020  0.00  0.00    +0.000 N 
ATOM      5  H   GLU A   2      -2.106  -6.099   6.754  0.00  0.00    +0.000 HD
ATOM      6  CA  GLU A   2      -0.854  -4.401   6.907  0.00  0.00    +0.000 C 
ATOM      7  C   GLU A   2      -1.314  -3.701   8.185  0.00  0.00    +0.000 C 
ATOM      8  O   GLU A   2      -2.496  -3.743   8.530  0.00  0.00    +0.000 OA
ATOM      9  CB  GLU A   2      -1.552  -3.798   5.681  0.00  0.00    +0.000 C 
ATOM     10  CG  GLU A   2      -1.082  -2.400   5.292  0.00  0.00    +0.000 C 
ATOM     11  CD  GLU A   2      -2.191  -1.537   4.702  0.00  0.00    +0.000 C 
ATOM     12  OE1 GLU A   2      -2.055  -1.098   3.537  0.00  0.00    +0.000 OA
ATOM     13  OE2 GLU A   2      -3.199  -1.284   5.404  0.00  0.00    +0.000 OA
ATOM     14  N   LEU A   3      -0.380  -3.076   8.896  0.00  0.00    +0.000 N 
ATOM     15  H   LEU A   3       0.553  -2.984   8.518  0.00  0.00    +0.000 HD
ATOM     16  CA  LEU A   3      -0.710  -2.385  10.144  0.00  0.00    +0.000 C 
ATOM     17  C   LEU A   3      -1.231  -0.970   9.906  0.00  0.00    +0.000 C 
ATOM     18  O   LEU A   3      -2.138  -0.511  10.599  0.00  0.00    +0.000 OA
ATOM     19  CB  LEU A   3       0.485  -2.370  11.099  0.00  0.00    +0.000 C 
ATOM     20  CG  LEU A   3       0.992  -3.728  11.589  0.00  0.00    +0.000 C 
ATOM     21  CD1 LEU A   3       2.333  -3.567  12.282  0.00  0.00    +0.000 C 
ATOM     22  CD2 LEU A   3      -0.023  -4.416  12.509  0.00  0.00    +0.000 C 
ATOM     23  N   GLY A   4      -0.653  -0.285   8.926  0.00  0.00    +0.000 N 
ATOM     24  H   GLY A   4       0.028  -0.747   8.336  0.00  0.00    +0.000 HD
ATOM     25  CA  GLY A   4      -1.098   1.045   8.555  0.00  0.00    +0.000 C 
ATOM     26  C   GLY A   4      -0.450   1.540   7.280  0.00  0.00    +0.000 C 
ATOM     27  O   GLY A   4       0.392   0.856   6.695  0.00  0.00    +0.000 OA
ATOM     28  N   SER A   5      -0.848   2.735   6.851  0.00  0.00    +0.000 N 
ATOM     29  H   SER A   5      -1.584   3.235   7.330  0.00  0.00    +0.000 HD
ATOM     30  CA  SER A   5      -0.295   3.348   5.647  0.00  0.00    +0.000 C 
ATOM     31  C   SER A   5      -0.280   4.869   5.749  0.00  0.00    +0.000 C 
ATOM     32  O   SER A   5      -1.117   5.462   6.429  0.00  0.00    +0.000 OA
ATOM     33  CB  SER A   5      -1.090   2.914   4.413  0.00  0.00    +0.000 C 
ATOM     34  OG  SER A   5      -2.468   3.208   4.571  0.00  0.00    +0.000 OA
ATOM     35  HG  SER A   5      -2.926   2.363   4.665  0.00  0.00    +0.000 HD
ATOM     36  N   GLY A   6       0.684   5.486   5.070  0.00  0.00    +0.000 N 
ATOM     37  H   GLY A   6       1.242   4.931   4.426  0.00  0.00    +0.000 HD
ATOM     38  CA  GLY A   6       0.772   6.934   4.965  0.00  0.00    +0.000 C 
ATOM     39  C   GLY A   6       1.232   7.351   3.580  0.00  0.00    +0.000 C 
ATOM     40  O   GLY A   6       1.133   6.572   2.624  0.00  0.00    +0.000 OA
ATOM     41  N   ASN A   7       1.735   8.579   3.469  0.00  0.00    +0.000 N 
ATOM     42  H   ASN A   7       1.641   9.210   4.249  0.00  0.00    +0.000 HD
ATOM     43  CA  ASN A   7       2.279   9.074   2.203  0.00  0.00    +0.000 C 
ATOM     44  C   ASN A   7       3.568   8.347   1.815  0.00  0.00    +0.000 C 
ATOM     45  O   ASN A   7       3.865   8.179   0.628  0.00  0.00    +0.000 OA
ATOM     46  CB  ASN A   7       2.520  10.585   2.272  0.00  0.00    +0.000 C 
ATOM     47  CG  ASN A   7       0.915  10.735   2.557  0.00  0.00    +0.000 C 
ATOM     48  OD1 ASN A   7      -0.147  10.669   1.894  0.00  0.00    +0.000 OA
ATOM     49  ND2 ASN A   7       0.442  10.981   3.744  0.00  0.00    +0.000 N 
ATOM     50 HD21 ASN A   7      -0.562  11.074   3.737  0.00  0.00    +0.000 HD
ATOM     51 HD22 ASN A   7       1.021  11.299   4.495  0.00  0.00    +0.000 HD
ATOM     52  N   PHE A   8       4.310   7.909   2.831  0.00  0.00    +0.000 N 
ATOM     53  H   PHE A   8       3.966   8.056   3.764  0.00  0.00    +0.000 HD
ATOM     54  CA  PHE A   8       5.576   7.189   2.670  0.00  0.00    +0.000 C 
ATOM     55  C   PHE A   8       5.421   5.820   2.009  0.00  0.00    +0.000 C 
ATOM     56  O   PHE A   8       6.353   5.316   1.381  0.00  0.00    +0.000 OA
ATOM     57  CB  PHE A   8       6.247   7.007   4.036  0.00  0.00    +0.000 C 
ATOM     58  CG  PHE A   8       5.373   6.318   5.058  0.00  0.00    +0.000 A 
ATOM     59  CD1 PHE A   8       4.614   7.062   5.959  0.00  0.00    +0.000 A 
ATOM     60  CD2 PHE A   8       5.311   4.928   5.122  0.00  0.00    +0.000 A 
ATOM     61  CE1 PHE A   8       3.806   6.433   6.907  0.00  0.00    +0.000 A 
ATOM     62  CE2 PHE A   8       4.501   4.289   6.061  0.00  0.00    +0.000 A 
ATOM     63  CZ  PHE A   8       3.750   5.043   6.955  0.00  0.00    +0.000 A 
ATOM     64  N   GLY A   9       4.244   5.223   2.167  0.00  0.00    +0.000 N 
ATOM     65  H   GLY A   9       3.477   5.728   2.586  0.00  0.00    +0.000 HD
ATOM     66  CA  GLY A   9       4.012   3.845   1.781  0.00  0.00    +0.000 C 
ATOM     67  C   GLY A   9       3.168   3.138   2.822  0.00  0.00    +0.000 C 
ATOM     68  O   GLY A   9       2.087   3.613   3.168  0.00  0.00    +0.000 OA
ATOM     69  N   THR A  10       3.660   2.008   3.324  0.00  0.00    +0.000 N 
ATOM     70  H   THR A  10       4.613   1.745   3.084  0.00  0.00    +0.000 HD
ATOM     71  CA  THR A  10       2.901   1.195   4.279  0.00  0.00    +0.000 C 
ATOM     72  C   THR A  10       3.739   0.693   5.457  0.00  0.00    +0.000 C 
ATOM     73  O   THR A  10       4.973   0.705   5.422  0.00  0.00    +0.000 OA
ATOM     74  CB  THR A  10       2.225  -0.026   3.582  0.00  0.00    +0.000 C 
ATOM     75  OG1 THR A  10       3.225  -0.975   3.194  0.00  0.00    +0.000 OA
ATOM     76  HG1 THR A  10       3.936  -0.474   2.808  0.00  0.00    +0.000 HD
ATOM     77  CG2 THR A  10       1.555   0.361   2.260  0.00  0.00    +0.000 C 
ATOM     78  N   VAL A  11       3.044   0.257   6.501  0.00  0.00    +0.000 N 
ATOM     79  H   VAL A  11       2.028   0.276   6.465  0.00  0.00    +0.000 HD
ATOM     80  CA  VAL A  11       3.667  -0.452   7.607  0.00  0.00    +0.000 C 
ATOM     81  C   VAL A  11       3.045  -1.842   7.676  0.00  0.00    +0.000 C 
ATOM     82  O   VAL A  11       1.821  -1.984   7.673  0.00  0.00    +0.000 OA
ATOM     83  CB  VAL A  11       3.507   0.292   8.959  0.00  0.00    +0.000 C 
ATOM     84  CG1 VAL A  11       4.222  -0.459  10.069  0.00  0.00    +0.000 C 
ATOM     85  CG2 VAL A  11       4.047   1.722   8.867  0.00  0.00    +0.000 C 
ATOM     86  N   LYS A  12       3.901  -2.858   7.718  0.00  0.00    +0.000 N 
ATOM     87  H   LYS A  12       4.897  -2.651   7.729  0.00  0.00    +0.000 HD
ATOM     88  CA  LYS A  12       3.466  -4.251   7.752  0.00  0.00    +0.000 C 
ATOM     89  C   LYS A  12       4.092  -4.996   8.926  0.00  0.00    +0.000 C 
ATOM     90  O   LYS A  12       5.211  -4.690   9.340  0.00  0.00    +0.000 OA
ATOM     91  CB  LYS A  12       3.831  -4.950   6.439  0.00  0.00    +0.000 C 
ATOM     92  CG  LYS A  12       2.860  -4.679   5.294  0.00  0.00    +0.000 C 
ATOM     93  CD  LYS A  12       3.410  -5.175   3.960  0.00  0.00    +0.000 C 
ATOM     94  CE  LYS A  12       2.746  -6.370   3.340  0.00  0.00    +0.000 C 
ATOM     95  NZ  LYS A  12       1.567  -5.841   2.661  0.00  0.00    +0.000 N 
ATOM     96  HZ1 LYS A  12       0.977  -6.590   2.322  0.00  0.00    +0.000 HD
ATOM     97  HZ2 LYS A  12       1.021  -5.261   3.289  0.00  0.00    +0.000 HD
ATOM     98  HZ3 LYS A  12       1.834  -5.262   1.874  0.00  0.00    +0.000 HD
ATOM     99  N   NME A  13       3.353  -5.964   9.464  0.00  0.00    +0.000 N 
ATOM    100  H   NME A  13       2.423  -6.131   9.090  0.00  0.00    +0.000 HD
ATOM    101  C   NME A  13       3.859  -6.860  10.499  0.00  0.00    +0.000 C 
TER 
REMARK  Name = /home/xianyang/aimnet2_score_pipelines/work/L1234-fixed-receptor-eint-20260921/L2/P43405/prepared.pdb
REMARK                            x       y       z     vdW  Elec       q    Type
REMARK                         _______ _______ _______ _____ _____    ______ ____
ATOM      1  CH3 ACE B   1       7.876  -9.718  15.962  0.00  0.00    +0.000 C 
ATOM      2  C   ACE B   1       8.221  -8.241  15.824  0.00  0.00    +0.000 C 
ATOM      3  O   ACE B   1       8.598  -7.591  16.802  0.00  0.00    +0.000 OA
ATOM      4  N   VAL B   2       8.111  -7.734  14.601  0.00  0.00    +0.000 N 
ATOM      5  H   VAL B   2       7.696  -8.289  13.868  0.00  0.00    +0.000 HD
ATOM      6  CA  VAL B   2       8.478  -6.352  14.289  0.00  0.00    +0.000 C 
ATOM      7  C   VAL B   2       7.422  -5.675  13.418  0.00  0.00    +0.000 C 
ATOM      8  O   VAL B   2       6.628  -6.341  12.755  0.00  0.00    +0.000 OA
ATOM      9  CB  VAL B   2       9.862  -6.260  13.576  0.00  0.00    +0.000 C 
ATOM     10  CG1 VAL B   2      11.004  -6.671  14.513  0.00  0.00    +0.000 C 
ATOM     11  CG2 VAL B   2       9.879  -7.080  12.288  0.00  0.00    +0.000 C 
ATOM     12  N   ALA B   3       7.413  -4.347  13.442  0.00  0.00    +0.000 N 
ATOM     13  H   ALA B   3       8.106  -3.861  14.006  0.00  0.00    +0.000 HD
ATOM     14  CA  ALA B   3       6.648  -3.562  12.488  0.00  0.00    +0.000 C 
ATOM     15  C   ALA B   3       7.632  -2.985  11.475  0.00  0.00    +0.000 C 
ATOM     16  O   ALA B   3       8.699  -2.498  11.846  0.00  0.00    +0.000 OA
ATOM     17  CB  ALA B   3       5.889  -2.457  13.187  0.00  0.00    +0.000 C 
ATOM     18  N   VAL B   4       7.276  -3.062  10.199  0.00  0.00    +0.000 N 
ATOM     19  H   VAL B   4       6.417  -3.545   9.955  0.00  0.00    +0.000 HD
ATOM     20  CA  VAL B   4       8.186  -2.674   9.130  0.00  0.00    +0.000 C 
ATOM     21  C   VAL B   4       7.586  -1.557   8.289  0.00  0.00    +0.000 C 
ATOM     22  O   VAL B   4       6.516  -1.714   7.702  0.00  0.00    +0.000 OA
ATOM     23  CB  VAL B   4       8.566  -3.883   8.228  0.00  0.00    +0.000 C 
ATOM     24  CG1 VAL B   4       9.615  -3.480   7.197  0.00  0.00    +0.000 C 
ATOM     25  CG2 VAL B   4       9.069  -5.061   9.076  0.00  0.00    +0.000 C 
ATOM     26  N   LYS B   5       8.278  -0.423   8.249  0.00  0.00    +0.000 N 
ATOM     27  H   LYS B   5       9.152  -0.364   8.762  0.00  0.00    +0.000 HD
ATOM     28  CA  LYS B   5       7.873   0.690   7.397  0.00  0.00    +0.000 C 
ATOM     29  C   LYS B   5       8.447   0.467   6.001  0.00  0.00    +0.000 C 
ATOM     30  O   LYS B   5       9.658   0.363   5.838  0.00  0.00    +0.000 OA
ATOM     31  CB  LYS B   5       8.367   2.013   7.983  0.00  0.00    +0.000 C 
ATOM     32  CG  LYS B   5       7.658   3.238   7.448  0.00  0.00    +0.000 C 
ATOM     33  CD  LYS B   5       8.412   4.501   7.819  0.00  0.00    +0.000 C 
ATOM     34  CE  LYS B   5       7.484   5.692   7.905  0.00  0.00    +0.000 C 
ATOM     35  NZ  LYS B   5       8.234   6.959   8.145  0.00  0.00    +0.000 N 
ATOM     36  HZ1 LYS B   5       7.636   7.739   8.375  0.00  0.00    +0.000 HD
ATOM     37  HZ2 LYS B   5       8.876   7.195   7.404  0.00  0.00    +0.000 HD
ATOM     38  HZ3 LYS B   5       8.869   6.857   8.951  0.00  0.00    +0.000 HD
ATOM     39  N   ILE B   6       7.570   0.391   5.004  0.00  0.00    +0.000 N 
ATOM     40  H   ILE B   6       6.592   0.487   5.208  0.00  0.00    +0.000 HD
ATOM     41  CA  ILE B   6       7.976   0.088   3.632  0.00  0.00    +0.000 C 
ATOM     42  C   ILE B   6       7.647   1.249   2.692  0.00  0.00    +0.000 C 
ATOM     43  O   ILE B   6       6.498   1.692   2.620  0.00  0.00    +0.000 OA
ATOM     44  CB  ILE B   6       7.302  -1.230   3.156  0.00  0.00    +0.000 C 
ATOM     45  CG1 ILE B   6       7.790  -2.415   4.003  0.00  0.00    +0.000 C 
ATOM     46  CG2 ILE B   6       7.550  -1.477   1.664  0.00  0.00    +0.000 C 
ATOM     47  CD1 ILE B   6       6.766  -3.521   4.192  0.00  0.00    +0.000 C 
ATOM     48  N   NME B   7       8.659   1.735   1.977  0.00  0.00    +0.000 N 
ATOM     49  H   NME B   7       9.589   1.347   2.112  0.00  0.00    +0.000 HD
ATOM     50  C   NME B   7       8.475   2.830   1.021  0.00  0.00    +0.000 C 
TER 
REMARK  Name = /home/xianyang/aimnet2_score_pipelines/work/L1234-fixed-receptor-eint-20260921/L2/P43405/prepared.pdb
REMARK                            x       y       z     vdW  Elec       q    Type
REMARK                         _______ _______ _______ _____ _____    ______ ____
ATOM      1  CH3 ACE C   1      17.408   7.531   6.240  0.00  0.00    +0.000 C 
ATOM      2  C   ACE C   1      17.621   8.550   7.361  0.00  0.00    +0.000 C 
ATOM      3  O   ACE C   1      18.362   8.287   8.313  0.00  0.00    +0.000 OA
ATOM      4  N   ALA C   2      16.964   9.705   7.242  0.00  0.00    +0.000 N 
ATOM      5  H   ALA C   2      16.420   9.873   6.412  0.00  0.00    +0.000 HD
ATOM      6  CA  ALA C   2      16.954  10.717   8.300  0.00  0.00    +0.000 C 
ATOM      7  C   ALA C   2      16.236  10.193   9.547  0.00  0.00    +0.000 C 
ATOM      8  O   ALA C   2      16.752  10.306  10.659  0.00  0.00    +0.000 OA
ATOM      9  CB  ALA C   2      16.302  12.002   7.804  0.00  0.00    +0.000 C 
ATOM     10  N   GLU C   3      15.052   9.615   9.343  0.00  0.00    +0.000 N 
ATOM     11  H   GLU C   3      14.669   9.617   8.414  0.00  0.00    +0.000 HD
ATOM     12  CA  GLU C   3      14.267   8.996  10.413  0.00  0.00    +0.000 C 
ATOM     13  C   GLU C   3      15.056   7.894  11.118  0.00  0.00    +0.000 C 
ATOM     14  O   GLU C   3      15.020   7.787  12.349  0.00  0.00    +0.000 OA
ATOM     15  CB  GLU C   3      12.970   8.423   9.840  0.00  0.00    +0.000 C 
ATOM     16  CG  GLU C   3      11.884   8.129  10.865  0.00  0.00    +0.000 C 
ATOM     17  CD  GLU C   3      10.703   7.378  10.269  0.00  0.00    +0.000 C 
ATOM     18  OE1 GLU C   3      10.750   7.030   9.069  0.00  0.00    +0.000 OA
ATOM     19  OE2 GLU C   3       9.722   7.134  11.000  0.00  0.00    +0.000 OA
ATOM     20  N   ALA C   4      15.767   7.090  10.326  0.00  0.00    +0.000 N 
ATOM     21  H   ALA C   4      15.767   7.275   9.339  0.00  0.00    +0.000 HD
ATOM     22  CA  ALA C   4      16.617   6.012  10.833  0.00  0.00    +0.000 C 
ATOM     23  C   ALA C   4      17.764   6.531  11.701  0.00  0.00    +0.000 C 
ATOM     24  O   ALA C   4      18.004   6.006  12.790  0.00  0.00    +0.000 OA
ATOM     25  CB  ALA C   4      17.158   5.171   9.678  0.00  0.00    +0.000 C 
ATOM     26  N   NME C   5      18.468   7.556  11.218  0.00  0.00    +0.000 N 
ATOM     27  H   NME C   5      18.220   7.948  10.317  0.00  0.00    +0.000 HD
ATOM     28  C   NME C   5      19.552   8.177  11.984  0.00  0.00    +0.000 C 
TER 
REMARK  Name = /home/xianyang/aimnet2_score_pipelines/work/L1234-fixed-receptor-eint-20260921/L2/P43405/prepared.pdb
REMARK                            x       y       z     vdW  Elec       q    Type
REMARK                         _______ _______ _______ _____ _____    ______ ____
ATOM      1  CH3 ACE D   1       8.729   4.688  26.154  0.00  0.00    +0.000 C 
ATOM      2  C   ACE D   1       8.736   5.264  24.733  0.00  0.00    +0.000 C 
ATOM      3  O   ACE D   1       7.949   6.142  24.390  0.00  0.00    +0.000 OA
ATOM      4  N   ILE D   2       9.622   4.714  23.909  0.00  0.00    +0.000 N 
ATOM      5  H   ILE D   2      10.174   3.933  24.231  0.00  0.00    +0.000 HD
ATOM      6  CA  ILE D   2       9.713   5.051  22.495  0.00  0.00    +0.000 C 
ATOM      7  C   ILE D   2       9.792   3.749  21.688  0.00  0.00    +0.000 C 
ATOM      8  O   ILE D   2      10.347   2.759  22.158  0.00  0.00    +0.000 OA
ATOM      9  CB  ILE D   2      10.947   5.969  22.258  0.00  0.00    +0.000 C 
ATOM     10  CG1 ILE D   2      10.625   7.404  22.677  0.00  0.00    +0.000 C 
ATOM     11  CG2 ILE D   2      11.391   5.957  20.808  0.00  0.00    +0.000 C 
ATOM     12  CD1 ILE D   2      11.316   7.839  23.933  0.00  0.00    +0.000 C 
ATOM     13  N   VAL D   3       9.205   3.738  20.496  0.00  0.00    +0.000 N 
ATOM     14  H   VAL D   3       8.720   4.568  20.172  0.00  0.00    +0.000 HD
ATOM     15  CA  VAL D   3       9.362   2.604  19.594  0.00  0.00    +0.000 C 
ATOM     16  C   VAL D   3      10.779   2.652  19.021  0.00  0.00    +0.000 C 
ATOM     17  O   VAL D   3      11.131   3.582  18.295  0.00  0.00    +0.000 OA
ATOM     18  CB  VAL D   3       8.295   2.593  18.473  0.00  0.00    +0.000 C 
ATOM     19  CG1 VAL D   3       8.611   1.530  17.421  0.00  0.00    +0.000 C 
ATOM     20  CG2 VAL D   3       6.910   2.347  19.059  0.00  0.00    +0.000 C 
ATOM     21  N   ARG D   4      11.597   1.666  19.384  0.00  0.00    +0.000 N 
ATOM     22  H   ARG D   4      11.245   0.940  20.016  0.00  0.00    +0.000 HD
ATOM     23  CA  ARG D   4      12.978   1.607  18.918  0.00  0.00    +0.000 C 
ATOM     24  C   ARG D   4      13.064   1.056  17.505  0.00  0.00    +0.000 C 
ATOM     25  O   ARG D   4      12.218   0.268  17.079  0.00  0.00    +0.000 OA
ATOM     26  CB  ARG D   4      13.833   0.739  19.845  0.00  0.00    +0.000 C 
ATOM     27  CG  ARG D   4      14.088   1.323  21.222  0.00  0.00    +0.000 C 
ATOM     28  CD  ARG D   4      14.373   0.267  22.270  0.00  0.00    +0.000 C 
ATOM     29  NE  ARG D   4      15.154   0.797  23.384  0.00  0.00    +0.000 N 
ATOM     30  HE  ARG D   4      15.909   1.420  23.161  0.00  0.00    +0.000 HD
ATOM     31  CZ  ARG D   4      14.879   0.579  24.666  0.00  0.00    +0.000 C 
ATOM     32  NH1 ARG D   4      15.651   1.108  25.610  0.00  0.00    +0.000 N 
ATOM     33 HH11 ARG D   4      16.490   1.599  25.350  0.00  0.00    +0.000 HD
ATOM     34 HH12 ARG D   4      15.423   0.958  26.576  0.00  0.00    +0.000 HD
ATOM     35  NH2 ARG D   4      13.830  -0.162  25.010  0.00  0.00    +0.000 N 
ATOM     36 HH21 ARG D   4      13.754  -0.594  25.917  0.00  0.00    +0.000 HD
ATOM     37 HH22 ARG D   4      13.213  -0.448  24.260  0.00  0.00    +0.000 HD
ATOM     38  N   NME D   5      14.096   1.480  16.786  0.00  0.00    +0.000 N 
ATOM     39  H   NME D   5      14.704   2.176  17.183  0.00  0.00    +0.000 HD
ATOM     40  C   NME D   5      14.420   0.921  15.481  0.00  0.00    +0.000 C 
TER 
REMARK  Name = /home/xianyang/aimnet2_score_pipelines/work/L1234-fixed-receptor-eint-20260921/L2/P43405/prepared.pdb
REMARK                            x       y       z     vdW  Elec       q    Type
REMARK                         _______ _______ _______ _____ _____    ______ ____
ATOM      1  CH3 ACE E   1      13.623   0.613   1.472  0.00  0.00    +0.000 C 
ATOM      2  C   ACE E   1      12.704   0.285   2.650  0.00  0.00    +0.000 C 
ATOM      3  O   ACE E   1      11.503   0.559   2.602  0.00  0.00    +0.000 OA
ATOM      4  N   MET E   2      13.275  -0.296   3.703  0.00  0.00    +0.000 N 
ATOM      5  H   MET E   2      14.271  -0.451   3.711  0.00  0.00    +0.000 HD
ATOM      6  CA  MET E   2      12.490  -0.792   4.832  0.00  0.00    +0.000 C 
ATOM      7  C   MET E   2      13.077  -0.371   6.170  0.00  0.00    +0.000 C 
ATOM      8  O   MET E   2      14.266  -0.550   6.414  0.00  0.00    +0.000 OA
ATOM      9  CB  MET E   2      12.375  -2.319   4.774  0.00  0.00    +0.000 C 
ATOM     10  CG  MET E   2      11.397  -2.837   3.728  0.00  0.00    +0.000 C 
ATOM     11  SD  MET E   2      11.525  -4.618   3.457  0.00  0.00    +0.000 S 
ATOM     12  CE  MET E   2      11.117  -4.710   1.714  0.00  0.00    +0.000 C 
ATOM     13  N   LEU E   3      12.233   0.200   7.029  0.00  0.00    +0.000 N 
ATOM     14  H   LEU E   3      11.268   0.338   6.744  0.00  0.00    +0.000 HD
ATOM     15  CA  LEU E   3      12.630   0.541   8.391  0.00  0.00    +0.000 C 
ATOM     16  C   LEU E   3      11.955  -0.422   9.362  0.00  0.00    +0.000 C 
ATOM     17  O   LEU E   3      10.732  -0.422   9.507  0.00  0.00    +0.000 OA
ATOM     18  CB  LEU E   3      12.274   1.997   8.720  0.00  0.00    +0.000 C 
ATOM     19  CG  LEU E   3      12.622   2.563  10.101  0.00  0.00    +0.000 C 
ATOM     20  CD1 LEU E   3      14.063   3.025  10.154  0.00  0.00    +0.000 C 
ATOM     21  CD2 LEU E   3      11.695   3.719  10.437  0.00  0.00    +0.000 C 
ATOM     22  N   VAL E   4      12.769  -1.240  10.018  0.00  0.00    +0.000 N 
ATOM     23  H   VAL E   4      13.765  -1.153   9.879  0.00  0.00    +0.000 HD
ATOM     24  CA  VAL E   4      12.286  -2.302  10.893  0.00  0.00    +0.000 C 
ATOM     25  C   VAL E   4      12.304  -1.798  12.330  0.00  0.00    +0.000 C 
ATOM     26  O   VAL E   4      13.347  -1.369  12.826  0.00  0.00    +0.000 OA
ATOM     27  CB  VAL E   4      13.142  -3.591  10.725  0.00  0.00    +0.000 C 
ATOM     28  CG1 VAL E   4      12.707  -4.675  11.696  0.00  0.00    +0.000 C 
ATOM     29  CG2 VAL E   4      13.051  -4.112   9.285  0.00  0.00    +0.000 C 
ATOM     30  N   MET E   5      11.138  -1.834  12.979  0.00  0.00    +0.000 N 
ATOM     31  H   MET E   5      10.314  -2.202  12.518  0.00  0.00    +0.000 HD
ATOM     32  CA  MET E   5      10.963  -1.296  14.335  0.00  0.00    +0.000 C 
ATOM     33  C   MET E   5      10.268  -2.290  15.278  0.00  0.00    +0.000 C 
ATOM     34  O   MET E   5       9.646  -3.244  14.825  0.00  0.00    +0.000 OA
ATOM     35  CB  MET E   5      10.138  -0.009  14.294  0.00  0.00    +0.000 C 
ATOM     36  CG  MET E   5      10.604   1.036  13.286  0.00  0.00    +0.000 C 
ATOM     37  SD  MET E   5       9.245   2.115  12.815  0.00  0.00    +0.000 S 
ATOM     38  CE  MET E   5       8.467   1.160  11.514  0.00  0.00    +0.000 C 
ATOM     39  N   GLU E   6      10.365  -2.040  16.585  0.00  0.00    +0.000 N 
ATOM     40  H   GLU E   6      10.892  -1.226  16.889  0.00  0.00    +0.000 HD
ATOM     41  CA  GLU E   6       9.637  -2.812  17.592  0.00  0.00    +0.000 C 
ATOM     42  C   GLU E   6       8.138  -2.816  17.307  0.00  0.00    +0.000 C 
ATOM     43  O   GLU E   6       7.600  -1.855  16.753  0.00  0.00    +0.000 OA
ATOM     44  CB  GLU E   6       9.853  -2.225  18.983  0.00  0.00    +0.000 C 
ATOM     45  CG  GLU E   6      11.263  -2.333  19.536  0.00  0.00    +0.000 C 
ATOM     46  CD  GLU E   6      11.399  -1.636  20.878  0.00  0.00    +0.000 C 
ATOM     47  OE1 GLU E   6      10.874  -0.508  21.029  0.00  0.00    +0.000 OA
ATOM     48  OE2 GLU E   6      12.028  -2.211  21.789  0.00  0.00    +0.000 OA
ATOM     49  N   MET E   7       7.474  -3.897  17.702  0.00  0.00    +0.000 N 
ATOM     50  H   MET E   7       7.970  -4.637  18.177  0.00  0.00    +0.000 HD
ATOM     51  CA  MET E   7       6.038  -4.049  17.511  0.00  0.00    +0.000 C 
ATOM     52  C   MET E   7       5.287  -3.683  18.794  0.00  0.00    +0.000 C 
ATOM     53  O   MET E   7       5.660  -4.114  19.880  0.00  0.00    +0.000 OA
ATOM     54  CB  MET E   7       5.725  -5.491  17.083  0.00  0.00    +0.000 C 
ATOM     55  CG  MET E   7       4.251  -5.813  16.926  0.00  0.00    +0.000 C 
ATOM     56  SD  MET E   7       3.624  -5.327  15.343  0.00  0.00    +0.000 S 
ATOM     57  CE  MET E   7       1.861  -5.185  15.692  0.00  0.00    +0.000 C 
ATOM     58  N   ALA E   8       4.252  -2.858  18.660  0.00  0.00    +0.000 N 
ATOM     59  H   ALA E   8       4.023  -2.508  17.743  0.00  0.00    +0.000 HD
ATOM     60  CA  ALA E   8       3.344  -2.553  19.765  0.00  0.00    +0.000 C 
ATOM     61  C   ALA E   8       1.974  -3.087  19.360  0.00  0.00    +0.000 C 
ATOM     62  O   ALA E   8       1.246  -2.435  18.610  0.00  0.00    +0.000 OA
ATOM     63  CB  ALA E   8       3.302  -1.055  20.017  0.00  0.00    +0.000 C 
ATOM     64  N   GLU E   9       1.638  -4.282  19.841  0.00  0.00    +0.000 N 
ATOM     65  H   GLU E   9       2.301  -4.772  20.421  0.00  0.00    +0.000 HD
ATOM     66  CA  GLU E   9       0.519  -5.057  19.281  0.00  0.00    +0.000 C 
ATOM     67  C   GLU E   9      -0.878  -4.454  19.449  0.00  0.00    +0.000 C 
ATOM     68  O   GLU E   9      -1.736  -4.626  18.574  0.00  0.00    +0.000 OA
ATOM     69  CB  GLU E   9       0.527  -6.498  19.802  0.00  0.00    +0.000 C 
ATOM     70  CG  GLU E   9       1.738  -7.306  19.369  0.00  0.00    +0.000 C 
ATOM     71  CD  GLU E   9       1.562  -8.007  18.034  0.00  0.00    +0.000 C 
ATOM     72  OE1 GLU E   9       2.514  -8.696  17.620  0.00  0.00    +0.000 OA
ATOM     73  OE2 GLU E   9       0.492  -7.878  17.394  0.00  0.00    +0.000 OA
ATOM     74  N   LEU E  10      -1.105  -3.752  20.556  0.00  0.00    +0.000 N 
ATOM     75  H   LEU E  10      -0.336  -3.531  21.176  0.00  0.00    +0.000 HD
ATOM     76  CA  LEU E  10      -2.434  -3.207  20.852  0.00  0.00    +0.000 C 
ATOM     77  C   LEU E  10      -2.799  -1.965  20.027  0.00  0.00    +0.000 C 
ATOM     78  O   LEU E  10      -3.965  -1.546  20.009  0.00  0.00    +0.000 OA
ATOM     79  CB  LEU E  10      -2.586  -2.934  22.354  0.00  0.00    +0.000 C 
ATOM     80  CG  LEU E  10      -3.213  -4.034  23.217  0.00  0.00    +0.000 C 
ATOM     81  CD1 LEU E  10      -2.446  -5.340  23.118  0.00  0.00    +0.000 C 
ATOM     82  CD2 LEU E  10      -3.281  -3.587  24.657  0.00  0.00    +0.000 C 
ATOM     83  N   GLY E  11      -1.809  -1.383  19.347  0.00  0.00    +0.000 N 
ATOM     84  H   GLY E  11      -0.884  -1.790  19.399  0.00  0.00    +0.000 HD
ATOM     85  CA  GLY E  11      -2.060  -0.314  18.396  0.00  0.00    +0.000 C 
ATOM     86  C   GLY E  11      -2.195   1.084  18.973  0.00  0.00    +0.000 C 
ATOM     87  O   GLY E  11      -1.889   1.313  20.147  0.00  0.00    +0.000 OA
ATOM     88  N   PRO E  12      -2.652   2.021  18.143  0.00  0.00    +0.000 N 
ATOM     89  CA  PRO E  12      -2.732   3.438  18.526  0.00  0.00    +0.000 C 
ATOM     90  C   PRO E  12      -3.682   3.688  19.694  0.00  0.00    +0.000 C 
ATOM     91  O   PRO E  12      -4.793   3.140  19.749  0.00  0.00    +0.000 OA
ATOM     92  CB  PRO E  12      -3.256   4.130  17.264  0.00  0.00    +0.000 C 
ATOM     93  CG  PRO E  12      -3.109   3.151  16.166  0.00  0.00    +0.000 C 
ATOM     94  CD  PRO E  12      -3.121   1.791  16.764  0.00  0.00    +0.000 C 
ATOM     95  N   LEU E  13      -3.221   4.527  20.615  0.00  0.00    +0.000 N 
ATOM     96  H   LEU E  13      -2.275   4.883  20.511  0.00  0.00    +0.000 HD
ATOM     97  CA  LEU E  13      -3.968   4.887  21.814  0.00  0.00    +0.000 C 
ATOM     98  C   LEU E  13      -5.369   5.454  21.541  0.00  0.00    +0.000 C 
ATOM     99  O   LEU E  13      -6.317   5.149  22.277  0.00  0.00    +0.000 OA
ATOM    100  CB  LEU E  13      -3.143   5.868  22.657  0.00  0.00    +0.000 C 
ATOM    101  CG  LEU E  13      -3.797   6.453  23.918  0.00  0.00    +0.000 C 
ATOM    102  CD1 LEU E  13      -3.924   5.402  25.014  0.00  0.00    +0.000 C 
ATOM    103  CD2 LEU E  13      -3.014   7.661  24.405  0.00  0.00    +0.000 C 
ATOM    104  N   ASN E  14      -5.509   6.276  20.502  0.00  0.00    +0.000 N 
ATOM    105  H   ASN E  14      -4.709   6.450  19.909  0.00  0.00    +0.000 HD
ATOM    106  CA  ASN E  14      -6.813   6.875  20.210  0.00  0.00    +0.000 C 
ATOM    107  C   ASN E  14      -7.851   5.807  19.843  0.00  0.00    +0.000 C 
ATOM    108  O   ASN E  14      -8.973   5.819  20.357  0.00  0.00    +0.000 OA
ATOM    109  CB  ASN E  14      -6.719   7.997  19.158  0.00  0.00    +0.000 C 
ATOM    110  CG  ASN E  14      -6.264   7.504  17.797  0.00  0.00    +0.000 C 
ATOM    111  OD1 ASN E  14      -5.396   6.636  17.686  0.00  0.00    +0.000 OA
ATOM    112  ND2 ASN E  14      -6.850   8.067  16.745  0.00  0.00    +0.000 NA
ATOM    113 HD21 ASN E  14      -7.782   8.371  17.025  0.00  0.00    +0.000 HD
ATOM    114 HD22 ASN E  14      -6.373   8.955  16.650  0.00  0.00    +0.000 HD
ATOM    115  N   LYS E  15      -7.447   4.865  18.996  0.00  0.00    +0.000 N 
ATOM    116  H   LYS E  15      -6.464   4.840  18.754  0.00  0.00    +0.000 HD
ATOM    117  CA  LYS E  15      -8.310   3.769  18.557  0.00  0.00    +0.000 C 
ATOM    118  C   LYS E  15      -8.623   2.797  19.689  0.00  0.00    +0.000 C 
ATOM    119  O   LYS E  15      -9.747   2.295  19.790  0.00  0.00    +0.000 OA
ATOM    120  CB  LYS E  15      -7.663   3.020  17.394  0.00  0.00    +0.000 C 
ATOM    121  CG  LYS E  15      -7.786   3.733  16.061  0.00  0.00    +0.000 C 
ATOM    122  CD  LYS E  15      -7.353   5.171  16.438  0.00  0.00    +0.000 C 
ATOM    123  CE  LYS E  15      -7.099   6.705  16.435  0.00  0.00    +0.000 C 
ATOM    124  NZ  LYS E  15      -6.750   7.689  15.380  0.00  0.00    +0.000 N 
ATOM    125  HZ1 LYS E  15      -7.408   8.435  15.186  0.00  0.00    +0.000 HD
ATOM    126  HZ2 LYS E  15      -5.765   7.920  15.409  0.00  0.00    +0.000 HD
ATOM    127  HZ3 LYS E  15      -6.767   7.162  14.518  0.00  0.00    +0.000 HD
ATOM    128  N   NME E  16      -7.634   2.543  20.543  0.00  0.00    +0.000 N 
ATOM    129  H   NME E  16      -6.722   2.953  20.384  0.00  0.00    +0.000 HD
ATOM    130  C   NME E  16      -7.821   1.654  21.684  0.00  0.00    +0.000 C 
TER 
REMARK  Name = /home/xianyang/aimnet2_score_pipelines/work/L1234-fixed-receptor-eint-20260921/L2/P43405/prepared.pdb
REMARK                            x       y       z     vdW  Elec       q    Type
REMARK                         _______ _______ _______ _____ _____    ______ ____
ATOM      1  CH3 ACE F   1      -0.656  12.898  18.943  0.00  0.00    +0.000 C 
ATOM      2  C   ACE F   1      -1.020  11.489  19.407  0.00  0.00    +0.000 C 
ATOM      3  O   ACE F   1      -0.212  10.565  19.279  0.00  0.00    +0.000 OA
ATOM      4  N   ALA F   2      -2.232  11.329  19.943  0.00  0.00    +0.000 N 
ATOM      5  H   ALA F   2      -2.791  12.148  20.129  0.00  0.00    +0.000 HD
ATOM      6  CA  ALA F   2      -2.719  10.024  20.411  0.00  0.00    +0.000 C 
ATOM      7  C   ALA F   2      -2.601   8.927  19.346  0.00  0.00    +0.000 C 
ATOM      8  O   ALA F   2      -2.288   7.780  19.665  0.00  0.00    +0.000 OA
ATOM      9  CB  ALA F   2      -4.156  10.136  20.903  0.00  0.00    +0.000 C 
ATOM     10  N   ARG F   3      -2.825   9.293  18.085  0.00  0.00    +0.000 N 
ATOM     11  H   ARG F   3      -2.999  10.269  17.910  0.00  0.00    +0.000 HD
ATOM     12  CA  ARG F   3      -2.722   8.351  16.965  0.00  0.00    +0.000 C 
ATOM     13  C   ARG F   3      -1.308   7.784  16.772  0.00  0.00    +0.000 C 
ATOM     14  O   ARG F   3      -1.141   6.723  16.160  0.00  0.00    +0.000 OA
ATOM     15  CB  ARG F   3      -3.225   8.994  15.667  0.00  0.00    +0.000 C 
ATOM     16  CG  ARG F   3      -2.367  10.135  15.160  0.00  0.00    +0.000 C 
ATOM     17  CD  ARG F   3      -2.829  10.740  13.831  0.00  0.00    +0.000 C 
ATOM     18  NE  ARG F   3      -1.996  11.885  13.489  0.00  0.00    +0.000 N 
ATOM     19  HE  ARG F   3      -1.163  11.703  12.947  0.00  0.00    +0.000 HD
ATOM     20  CZ  ARG F   3      -2.213  13.123  13.916  0.00  0.00    +0.000 C 
ATOM     21  NH1 ARG F   3      -3.259  13.400  14.693  0.00  0.00    +0.000 N 
ATOM     22 HH11 ARG F   3      -3.445  14.354  14.947  0.00  0.00    +0.000 HD
ATOM     23 HH12 ARG F   3      -3.937  12.687  14.862  0.00  0.00    +0.000 HD
ATOM     24  NH2 ARG F   3      -1.384  14.091  13.565  0.00  0.00    +0.000 N 
ATOM     25 HH21 ARG F   3      -0.638  13.895  12.920  0.00  0.00    +0.000 HD
ATOM     26 HH22 ARG F   3      -1.502  15.023  13.919  0.00  0.00    +0.000 HD
ATOM     27  N   ASN F   4      -0.307   8.490  17.304  0.00  0.00    +0.000 N 
ATOM     28  H   ASN F   4      -0.509   9.305  17.864  0.00  0.00    +0.000 HD
ATOM     29  CA  ASN F   4       1.105   8.103  17.164  0.00  0.00    +0.000 C 
ATOM     30  C   ASN F   4       1.738   7.528  18.427  0.00  0.00    +0.000 C 
ATOM     31  O   ASN F   4       2.944   7.244  18.459  0.00  0.00    +0.000 OA
ATOM     32  CB  ASN F   4       1.926   9.281  16.635  0.00  0.00    +0.000 C 
ATOM     33  CG  ASN F   4       1.557   9.634  15.216  0.00  0.00    +0.000 C 
ATOM     34  OD1 ASN F   4       1.237   8.752  14.423  0.00  0.00    +0.000 OA
ATOM     35  ND2 ASN F   4       1.573  10.924  14.893  0.00  0.00    +0.000 N 
ATOM     36 HD21 ASN F   4       2.063  11.530  15.524  0.00  0.00    +0.000 HD
ATOM     37 HD22 ASN F   4       1.684  11.031  13.896  0.00  0.00    +0.000 HD
ATOM     38  N   VAL F   5       0.913   7.376  19.462  0.00  0.00    +0.000 N 
ATOM     39  H   VAL F   5      -0.064   7.606  19.337  0.00  0.00    +0.000 HD
ATOM     40  CA  VAL F   5       1.274   6.672  20.686  0.00  0.00    +0.000 C 
ATOM     41  C   VAL F   5       0.688   5.266  20.601  0.00  0.00    +0.000 C 
ATOM     42  O   VAL F   5      -0.515   5.094  20.377  0.00  0.00    +0.000 OA
ATOM     43  CB  VAL F   5       0.733   7.396  21.944  0.00  0.00    +0.000 C 
ATOM     44  CG1 VAL F   5       0.812   6.500  23.184  0.00  0.00    +0.000 C 
ATOM     45  CG2 VAL F   5       1.488   8.692  22.172  0.00  0.00    +0.000 C 
ATOM     46  N   LEU F   6       1.549   4.267  20.773  0.00  0.00    +0.000 N 
ATOM     47  H   LEU F   6       2.506   4.466  21.045  0.00  0.00    +0.000 HD
ATOM     48  CA  LEU F   6       1.172   2.887  20.532  0.00  0.00    +0.000 C 
ATOM     49  C   LEU F   6       1.258   2.088  21.818  0.00  0.00    +0.000 C 
ATOM     50  O   LEU F   6       2.132   2.331  22.650  0.00  0.00    +0.000 OA
ATOM     51  CB  LEU F   6       2.074   2.266  19.463  0.00  0.00    +0.000 C 
ATOM     52  CG  LEU F   6       2.020   2.865  18.051  0.00  0.00    +0.000 C 
ATOM     53  CD1 LEU F   6       3.076   2.216  17.215  0.00  0.00    +0.000 C 
ATOM     54  CD2 LEU F   6       0.650   2.696  17.393  0.00  0.00    +0.000 C 
ATOM     55  N   LEU F   7       0.343   1.139  21.965  0.00  0.00    +0.000 N 
ATOM     56  H   LEU F   7      -0.376   1.033  21.255  0.00  0.00    +0.000 HD
ATOM     57  CA  LEU F   7       0.235   0.352  23.183  0.00  0.00    +0.000 C 
ATOM     58  C   LEU F   7       0.857  -1.027  22.998  0.00  0.00    +0.000 C 
ATOM     59  O   LEU F   7       0.469  -1.779  22.108  0.00  0.00    +0.000 OA
ATOM     60  CB  LEU F   7      -1.238   0.224  23.602  0.00  0.00    +0.000 C 
ATOM     61  CG  LEU F   7      -2.002   1.486  24.037  0.00  0.00    +0.000 C 
ATOM     62  CD1 LEU F   7      -3.205   1.128  24.907  0.00  0.00    +0.000 C 
ATOM     63  CD2 LEU F   7      -1.116   2.463  24.777  0.00  0.00    +0.000 C 
ATOM     64  N   NME F   8       1.839  -1.337  23.836  0.00  0.00    +0.000 N 
ATOM     65  H   NME F   8       2.158  -0.635  24.487  0.00  0.00    +0.000 HD
ATOM     66  C   NME F   8       2.396  -2.683  23.909  0.00  0.00    +0.000 C 
TER 
REMARK  Name = /home/xianyang/aimnet2_score_pipelines/work/L1234-fixed-receptor-eint-20260921/L2/P43405/prepared.pdb
REMARK                            x       y       z     vdW  Elec       q    Type
REMARK                         _______ _______ _______ _____ _____    ______ ____
ATOM      1  CH3 ACE G   1       5.425   3.981  23.461  0.00  0.00    +0.000 C 
ATOM      2  C   ACE G   1       5.082   5.034  22.411  0.00  0.00    +0.000 C 
ATOM      3  O   ACE G   1       4.085   4.916  21.696  0.00  0.00    +0.000 OA
ATOM      4  N   ILE G   2       5.942   6.042  22.318  0.00  0.00    +0.000 N 
ATOM      5  H   ILE G   2       6.714   6.078  22.976  0.00  0.00    +0.000 HD
ATOM      6  CA  ILE G   2       5.864   7.071  21.286  0.00  0.00    +0.000 C 
ATOM      7  C   ILE G   2       6.449   6.542  19.985  0.00  0.00    +0.000 C 
ATOM      8  O   ILE G   2       7.527   5.940  19.983  0.00  0.00    +0.000 OA
ATOM      9  CB  ILE G   2       6.642   8.333  21.733  0.00  0.00    +0.000 C 
ATOM     10  CG1 ILE G   2       6.049   8.908  23.020  0.00  0.00    +0.000 C 
ATOM     11  CG2 ILE G   2       6.632   9.400  20.634  0.00  0.00    +0.000 C 
ATOM     12  CD1 ILE G   2       7.050   9.648  23.872  0.00  0.00    +0.000 C 
ATOM     13  N   SER G   3       5.738   6.781  18.885  0.00  0.00    +0.000 N 
ATOM     14  H   SER G   3       4.873   7.307  18.944  0.00  0.00    +0.000 HD
ATOM     15  CA  SER G   3       6.174   6.343  17.567  0.00  0.00    +0.000 C 
ATOM     16  C   SER G   3       6.057   7.451  16.505  0.00  0.00    +0.000 C 
ATOM     17  O   SER G   3       5.776   8.614  16.829  0.00  0.00    +0.000 OA
ATOM     18  CB  SER G   3       5.386   5.106  17.134  0.00  0.00    +0.000 C 
ATOM     19  OG  SER G   3       4.035   5.438  16.879  0.00  0.00    +0.000 OA
ATOM     20  HG  SER G   3       3.712   6.061  17.556  0.00  0.00    +0.000 HD
ATOM     21  N   ASP G   4       6.267   7.064  15.243  0.00  0.00    +0.000 N 
ATOM     22  H   ASP G   4       6.409   6.086  15.063  0.00  0.00    +0.000 HD
ATOM     23  CA  ASP G   4       6.227   7.957  14.086  0.00  0.00    +0.000 C 
ATOM     24  C   ASP G   4       7.166   9.158  14.219  0.00  0.00    +0.000 C 
ATOM     25  O   ASP G   4       6.735  10.265  14.550  0.00  0.00    +0.000 OA
ATOM     26  CB  ASP G   4       4.790   8.402  13.769  0.00  0.00    +0.000 C 
ATOM     27  CG  ASP G   4       4.639   8.919  12.349  0.00  0.00    +0.000 C 
ATOM     28  OD1 ASP G   4       5.657   9.040  11.637  0.00  0.00    +0.000 OA
ATOM     29  OD2 ASP G   4       3.539   9.237  11.856  0.00  0.00    +0.000 OA
ATOM     30  N   PHE G   5       8.442   8.929  13.927  0.00  0.00    +0.000 N 
ATOM     31  H   PHE G   5       8.709   8.028  13.557  0.00  0.00    +0.000 HD
ATOM     32  CA  PHE G   5       9.459   9.970  14.015  0.00  0.00    +0.000 C 
ATOM     33  C   PHE G   5       9.755  10.616  12.656  0.00  0.00    +0.000 C 
ATOM     34  O   PHE G   5      10.835  11.165  12.441  0.00  0.00    +0.000 OA
ATOM     35  CB  PHE G   5      10.726   9.415  14.666  0.00  0.00    +0.000 C 
ATOM     36  CG  PHE G   5      10.582   9.169  16.140  0.00  0.00    +0.000 A 
ATOM     37  CD1 PHE G   5      11.074  10.088  17.059  0.00  0.00    +0.000 A 
ATOM     38  CD2 PHE G   5       9.942   8.024  16.614  0.00  0.00    +0.000 A 
ATOM     39  CE1 PHE G   5      10.943   9.871  18.424  0.00  0.00    +0.000 A 
ATOM     40  CE2 PHE G   5       9.803   7.802  17.986  0.00  0.00    +0.000 A 
ATOM     41  CZ  PHE G   5      10.305   8.732  18.890  0.00  0.00    +0.000 A 
ATOM     42  N   GLY G   6       8.767  10.571  11.766  0.00  0.00    +0.000 N 
ATOM     43  H   GLY G   6       7.908  10.092  12.022  0.00  0.00    +0.000 HD
ATOM     44  CA  GLY G   6       8.893  11.076  10.407  0.00  0.00    +0.000 C 
ATOM     45  C   GLY G   6       9.161  12.567  10.265  0.00  0.00    +0.000 C 
ATOM     46  O   GLY G   6       9.811  12.992   9.305  0.00  0.00    +0.000 OA
ATOM     47  N   NME G   7       8.660  13.362  11.207  0.00  0.00    +0.000 N 
ATOM     48  H   NME G   7       8.154  12.941  11.972  0.00  0.00    +0.000 HD
ATOM     49  C   NME G   7       8.861  14.809  11.168  0.00  0.00    +0.000 C 
TER 
