REMARK  Name = /data/user_data/xianyang/t3-aimnet-affinity-balanced/L2/Q92793/pocket.pdb
REMARK                            x       y       z     vdW  Elec       q    Type
REMARK                         _______ _______ _______ _____ _____    ______ ____
ATOM      1  N   PRO A   1       0.270   4.464  19.578  0.00  0.00    +0.000 N 
ATOM      2  CA  PRO A   1       0.340   3.013  19.741  0.00  0.00    +0.000 C 
ATOM      3  C   PRO A   1       1.709   2.402  19.437  0.00  0.00    +0.000 C 
ATOM      4  O   PRO A   1       1.837   1.174  19.451  0.00  0.00    +0.000 OA
ATOM      5  CB  PRO A   1      -0.696   2.542  18.720  0.00  0.00    +0.000 C 
ATOM      6  CG  PRO A   1      -0.463   3.491  17.552  0.00  0.00    +0.000 C 
ATOM      7  CD  PRO A   1      -0.032   4.822  18.182  0.00  0.00    +0.000 C 
ATOM      8  N   GLU A   2       2.735   3.212  19.150  0.00  0.00    +0.000 N 
ATOM      9  CA  GLU A   2       3.966   2.667  18.585  0.00  0.00    +0.000 C 
ATOM     10  C   GLU A   2       4.627   1.667  19.526  0.00  0.00    +0.000 C 
ATOM     11  O   GLU A   2       5.328   0.756  19.069  0.00  0.00    +0.000 OA
ATOM     12  CB  GLU A   2       4.929   3.803  18.223  0.00  0.00    +0.000 C 
ATOM     13  CG  GLU A   2       4.496   4.599  16.959  0.00  0.00    +0.000 C 
ATOM     14  CD  GLU A   2       3.749   5.880  17.305  0.00  0.00    +0.000 C 
ATOM     15  OE2 GLU A   2       3.225   5.967  18.437  0.00  0.00    +0.000 OA
ATOM     16  OE1 GLU A   2       3.684   6.793  16.448  0.00  0.00    +0.000 OA
ATOM     17  H   PRO A   1      -0.463   4.833  20.183  0.00  0.00    +0.000 HD
ATOM     18  H   PRO A   1       1.174   4.864  19.829  0.00  0.00    +0.000 HD
ATOM     19  H   GLU A   2       2.659   4.179  19.320  0.00  0.00    +0.000 HD
TER 
REMARK  Name = /data/user_data/xianyang/t3-aimnet-affinity-balanced/L2/Q92793/pocket.pdb
REMARK                            x       y       z     vdW  Elec       q    Type
REMARK                         _______ _______ _______ _____ _____    ______ ____
ATOM      1  N   LEU B   1       2.969  -0.484  21.636  0.00  0.00    +0.000 N 
ATOM      2  CA  LEU B   1       2.165  -1.635  22.054  0.00  0.00    +0.000 C 
ATOM      3  C   LEU B   1       2.714  -2.988  21.606  0.00  0.00    +0.000 C 
ATOM      4  O   LEU B   1       2.636  -3.935  22.405  0.00  0.00    +0.000 OA
ATOM      5  CB  LEU B   1       0.698  -1.476  21.610  0.00  0.00    +0.000 C 
ATOM      6  CG  LEU B   1       0.073  -0.082  21.678  0.00  0.00    +0.000 C 
ATOM      7  CD1 LEU B   1      -1.339  -0.053  21.069  0.00  0.00    +0.000 C 
ATOM      8  CD2 LEU B   1       0.037   0.359  23.119  0.00  0.00    +0.000 C 
ATOM      9  N   PRO B   2       3.258  -3.169  20.394  0.00  0.00    +0.000 N 
ATOM     10  CA  PRO B   2       3.868  -4.474  20.062  0.00  0.00    +0.000 C 
ATOM     11  C   PRO B   2       5.086  -4.805  20.904  0.00  0.00    +0.000 C 
ATOM     12  O   PRO B   2       5.502  -5.973  20.929  0.00  0.00    +0.000 OA
ATOM     13  CB  PRO B   2       4.262  -4.328  18.585  0.00  0.00    +0.000 C 
ATOM     14  CG  PRO B   2       3.558  -3.145  18.097  0.00  0.00    +0.000 C 
ATOM     15  CD  PRO B   2       3.359  -2.235  19.267  0.00  0.00    +0.000 C 
ATOM     16  N   PHE B   3       5.650  -3.822  21.608  0.00  0.00    +0.000 N 
ATOM     17  CA  PHE B   3       6.936  -3.976  22.270  0.00  0.00    +0.000 C 
ATOM     18  C   PHE B   3       6.825  -4.154  23.773  0.00  0.00    +0.000 C 
ATOM     19  O   PHE B   3       7.844  -4.406  24.428  0.00  0.00    +0.000 OA
ATOM     20  CB  PHE B   3       7.831  -2.767  21.945  0.00  0.00    +0.000 C 
ATOM     21  CG  PHE B   3       8.165  -2.652  20.479  0.00  0.00    +0.000 A 
ATOM     22  CD2 PHE B   3       9.246  -3.355  19.945  0.00  0.00    +0.000 A 
ATOM     23  CD1 PHE B   3       7.395  -1.875  19.630  0.00  0.00    +0.000 A 
ATOM     24  CE2 PHE B   3       9.547  -3.283  18.596  0.00  0.00    +0.000 A 
ATOM     25  CE1 PHE B   3       7.699  -1.799  18.274  0.00  0.00    +0.000 A 
ATOM     26  CZ  PHE B   3       8.779  -2.492  17.759  0.00  0.00    +0.000 A 
ATOM     27  H   LEU B   1       3.933  -0.614  21.942  0.00  0.00    +0.000 HD
ATOM     28  H   LEU B   1       2.591   0.365  22.056  0.00  0.00    +0.000 HD
ATOM     29  H   LEU B   1       2.942  -0.402  20.620  0.00  0.00    +0.000 HD
ATOM     30  H   PHE B   3       5.179  -2.961  21.682  0.00  0.00    +0.000 HD
TER 
REMARK  Name = /data/user_data/xianyang/t3-aimnet-affinity-balanced/L2/Q92793/pocket.pdb
REMARK                            x       y       z     vdW  Elec       q    Type
REMARK                         _______ _______ _______ _____ _____    ______ ____
ATOM      1  N   GLN C   1       5.447  -6.513  25.610  0.00  0.00    +0.000 N 
ATOM      2  CA  GLN C   1       5.576  -7.873  26.100  0.00  0.00    +0.000 C 
ATOM      3  C   GLN C   1       6.427  -8.646  25.108  0.00  0.00    +0.000 C 
ATOM      4  O   GLN C   1       6.587  -8.221  23.956  0.00  0.00    +0.000 OA
ATOM      5  CB  GLN C   1       4.200  -8.537  26.273  0.00  0.00    +0.000 C 
ATOM      6  CG  GLN C   1       3.366  -7.968  27.432  0.00  0.00    +0.000 C 
ATOM      7  CD  GLN C   1       3.869  -8.407  28.809  0.00  0.00    +0.000 C 
ATOM      8  OE1 GLN C   1       4.256  -9.564  29.007  0.00  0.00    +0.000 OA
ATOM      9  NE2 GLN C   1       3.867  -7.478  29.767  0.00  0.00    +0.000 N 
ATOM     10  H   GLN C   1       6.374  -6.100  25.506  0.00  0.00    +0.000 HD
ATOM     11  H   GLN C   1       4.902  -5.963  26.274  0.00  0.00    +0.000 HD
ATOM     12  H   GLN C   1       4.974  -6.521  24.706  0.00  0.00    +0.000 HD
ATOM     13  H   GLN C   1       3.551  -6.567  29.569  0.00  0.00    +0.000 HD
ATOM     14  H   GLN C   1       4.182  -7.704  30.672  0.00  0.00    +0.000 HD
TER 
REMARK  Name = /data/user_data/xianyang/t3-aimnet-affinity-balanced/L2/Q92793/pocket.pdb
REMARK                            x       y       z     vdW  Elec       q    Type
REMARK                         _______ _______ _______ _____ _____    ______ ____
ATOM      1  N   VAL D   1       7.655 -11.100  22.244  0.00  0.00    +0.000 N 
ATOM      2  CA  VAL D   1       6.983 -11.660  21.075  0.00  0.00    +0.000 C 
ATOM      3  C   VAL D   1       6.575 -13.101  21.367  0.00  0.00    +0.000 C 
ATOM      4  O   VAL D   1       7.351 -13.885  21.925  0.00  0.00    +0.000 OA
ATOM      5  CB  VAL D   1       7.900 -11.565  19.841  0.00  0.00    +0.000 C 
ATOM      6  CG1 VAL D   1       7.395 -12.437  18.700  0.00  0.00    +0.000 C 
ATOM      7  CG2 VAL D   1       8.085 -10.104  19.406  0.00  0.00    +0.000 C 
ATOM      8  N   ASP D   2       5.338 -13.464  20.985  0.00  0.00    +0.000 N 
ATOM      9  CA  ASP D   2       4.851 -14.834  21.161  0.00  0.00    +0.000 C 
ATOM     10  C   ASP D   2       4.628 -15.451  19.783  0.00  0.00    +0.000 C 
ATOM     11  O   ASP D   2       3.584 -15.208  19.158  0.00  0.00    +0.000 OA
ATOM     12  CB  ASP D   2       3.556 -14.844  21.989  0.00  0.00    +0.000 C 
ATOM     13  CG  ASP D   2       3.081 -16.252  22.352  0.00  0.00    +0.000 C 
ATOM     14  OD1 ASP D   2       3.430 -17.225  21.642  0.00  0.00    +0.000 OA
ATOM     15  OD2 ASP D   2       2.339 -16.378  23.356  0.00  0.00    +0.000 OA
ATOM     16  H   VAL D   1       7.928 -10.137  22.050  0.00  0.00    +0.000 HD
ATOM     17  H   VAL D   1       8.486 -11.653  22.456  0.00  0.00    +0.000 HD
ATOM     18  H   VAL D   1       7.021 -11.119  23.043  0.00  0.00    +0.000 HD
ATOM     19  H   ASP D   2       4.745 -12.792  20.577  0.00  0.00    +0.000 HD
TER 
REMARK  Name = /data/user_data/xianyang/t3-aimnet-affinity-balanced/L2/Q92793/pocket.pdb
REMARK                            x       y       z     vdW  Elec       q    Type
REMARK                         _______ _______ _______ _____ _____    ______ ____
ATOM      1  N   LEU E   1       1.264 -17.463  19.369  0.00  0.00    +0.000 N 
ATOM      2  CA  LEU E   1       0.052 -16.657  19.291  0.00  0.00    +0.000 C 
ATOM      3  C   LEU E   1      -0.013 -15.885  17.977  0.00  0.00    +0.000 C 
ATOM      4  O   LEU E   1      -1.090 -15.743  17.388  0.00  0.00    +0.000 OA
ATOM      5  CB  LEU E   1      -0.017 -15.707  20.485  0.00  0.00    +0.000 C 
ATOM      6  CG  LEU E   1      -1.146 -14.677  20.511  0.00  0.00    +0.000 C 
ATOM      7  CD1 LEU E   1      -2.421 -15.269  21.075  0.00  0.00    +0.000 C 
ATOM      8  CD2 LEU E   1      -0.716 -13.439  21.313  0.00  0.00    +0.000 C 
ATOM      9  N   LEU E   2       1.129 -15.393  17.496  0.00  0.00    +0.000 N 
ATOM     10  CA  LEU E   2       1.160 -14.616  16.261  0.00  0.00    +0.000 C 
ATOM     11  C   LEU E   2       1.236 -15.481  15.002  0.00  0.00    +0.000 C 
ATOM     12  O   LEU E   2       1.097 -14.944  13.893  0.00  0.00    +0.000 OA
ATOM     13  CB  LEU E   2       2.335 -13.633  16.291  0.00  0.00    +0.000 C 
ATOM     14  CG  LEU E   2       2.269 -12.524  17.341  0.00  0.00    +0.000 C 
ATOM     15  CD2 LEU E   2       3.598 -11.790  17.416  0.00  0.00    +0.000 C 
ATOM     16  CD1 LEU E   2       1.165 -11.537  17.054  0.00  0.00    +0.000 C 
ATOM     17  H   LEU E   1       1.304 -18.095  18.569  0.00  0.00    +0.000 HD
ATOM     18  H   LEU E   1       1.256 -18.007  20.232  0.00  0.00    +0.000 HD
ATOM     19  H   LEU E   1       2.080 -16.851  19.360  0.00  0.00    +0.000 HD
ATOM     20  H   LEU E   2       1.968 -15.557  17.984  0.00  0.00    +0.000 HD
TER 
REMARK  Name = /data/user_data/xianyang/t3-aimnet-affinity-balanced/L2/Q92793/pocket.pdb
REMARK                            x       y       z     vdW  Elec       q    Type
REMARK                         _______ _______ _______ _____ _____    ______ ____
ATOM      1  N   ILE F   1       3.880 -17.169  13.686  0.00  0.00    +0.000 N 
ATOM      2  CA  ILE F   1       5.096 -16.921  12.914  0.00  0.00    +0.000 C 
ATOM      3  C   ILE F   1       6.200 -17.860  13.395  0.00  0.00    +0.000 C 
ATOM      4  O   ILE F   1       7.110 -17.442  14.130  0.00  0.00    +0.000 OA
ATOM      5  CB  ILE F   1       5.511 -15.447  13.011  0.00  0.00    +0.000 C 
ATOM      6  CG1 ILE F   1       5.390 -14.954  14.451  0.00  0.00    +0.000 C 
ATOM      7  CG2 ILE F   1       4.637 -14.595  12.101  0.00  0.00    +0.000 C 
ATOM      8  CD1 ILE F   1       5.977 -13.580  14.657  0.00  0.00    +0.000 C 
ATOM      9  H   ILE F   1       3.141 -16.543  13.367  0.00  0.00    +0.000 HD
ATOM     10  H   ILE F   1       4.065 -17.000  14.675  0.00  0.00    +0.000 HD
ATOM     11  H   ILE F   1       3.586 -18.137  13.555  0.00  0.00    +0.000 HD
TER 
REMARK  Name = /data/user_data/xianyang/t3-aimnet-affinity-balanced/L2/Q92793/pocket.pdb
REMARK                            x       y       z     vdW  Elec       q    Type
REMARK                         _______ _______ _______ _____ _____    ______ ____
ATOM      1  N   TYR G   1      10.084 -17.052  13.796  0.00  0.00    +0.000 N 
ATOM      2  CA  TYR G   1      10.559 -15.882  14.529  0.00  0.00    +0.000 C 
ATOM      3  C   TYR G   1      11.806 -16.216  15.337  0.00  0.00    +0.000 C 
ATOM      4  O   TYR G   1      12.800 -15.483  15.287  0.00  0.00    +0.000 OA
ATOM      5  CB  TYR G   1       9.463 -15.310  15.436  0.00  0.00    +0.000 C 
ATOM      6  CG  TYR G   1       9.954 -14.076  16.160  0.00  0.00    +0.000 A 
ATOM      7  CD1 TYR G   1       9.935 -12.834  15.540  0.00  0.00    +0.000 A 
ATOM      8  CD2 TYR G   1      10.467 -14.149  17.456  0.00  0.00    +0.000 A 
ATOM      9  CE1 TYR G   1      10.406 -11.697  16.172  0.00  0.00    +0.000 A 
ATOM     10  CE2 TYR G   1      10.952 -13.010  18.104  0.00  0.00    +0.000 A 
ATOM     11  CZ  TYR G   1      10.925 -11.791  17.460  0.00  0.00    +0.000 A 
ATOM     12  OH  TYR G   1      11.398 -10.650  18.086  0.00  0.00    +0.000 OA
ATOM     13  H   TYR G   1      10.833 -17.409  13.203  0.00  0.00    +0.000 HD
ATOM     14  H   TYR G   1       9.287 -16.789  13.216  0.00  0.00    +0.000 HD
ATOM     15  H   TYR G   1       9.800 -17.775  14.457  0.00  0.00    +0.000 HD
ATOM     16  H   TYR G   1      11.375  -9.827  17.639  0.00  0.00    +0.000 HD
TER 
REMARK  Name = /data/user_data/xianyang/t3-aimnet-affinity-balanced/L2/Q92793/pocket.pdb
REMARK                            x       y       z     vdW  Elec       q    Type
REMARK                         _______ _______ _______ _____ _____    ______ ____
ATOM      1  N   ASN H   1      16.082  -6.341  16.426  0.00  0.00    +0.000 N 
ATOM      2  CA  ASN H   1      15.288  -7.547  16.213  0.00  0.00    +0.000 C 
ATOM      3  C   ASN H   1      14.065  -7.243  15.360  0.00  0.00    +0.000 C 
ATOM      4  O   ASN H   1      13.750  -7.985  14.424  0.00  0.00    +0.000 OA
ATOM      5  CB  ASN H   1      14.848  -8.155  17.543  0.00  0.00    +0.000 C 
ATOM      6  CG  ASN H   1      15.984  -8.804  18.292  0.00  0.00    +0.000 C 
ATOM      7  OD1 ASN H   1      17.027  -9.086  17.719  0.00  0.00    +0.000 OA
ATOM      8  ND2 ASN H   1      15.780  -9.050  19.598  0.00  0.00    +0.000 N 
ATOM      9  N   ALA H   2      13.389  -6.138  15.651  0.00  0.00    +0.000 N 
ATOM     10  CA  ALA H   2      12.157  -5.817  14.941  0.00  0.00    +0.000 C 
ATOM     11  C   ALA H   2      12.453  -5.392  13.511  0.00  0.00    +0.000 C 
ATOM     12  O   ALA H   2      11.687  -5.708  12.596  0.00  0.00    +0.000 OA
ATOM     13  CB  ALA H   2      11.395  -4.721  15.695  0.00  0.00    +0.000 C 
ATOM     14  H   ASN H   1      16.363  -5.955  15.525  0.00  0.00    +0.000 HD
ATOM     15  H   ASN H   1      16.913  -6.573  16.970  0.00  0.00    +0.000 HD
ATOM     16  H   ASN H   1      15.525  -5.652  16.932  0.00  0.00    +0.000 HD
ATOM     17  H   ASN H   1      14.923  -8.805  20.017  0.00  0.00    +0.000 HD
ATOM     18  H   ASN H   1      16.487  -9.475  20.135  0.00  0.00    +0.000 HD
ATOM     19  H   ALA H   2      13.722  -5.531  16.351  0.00  0.00    +0.000 HD
TER 
REMARK  Name = /data/user_data/xianyang/t3-aimnet-affinity-balanced/L2/Q92793/pocket.pdb
REMARK                            x       y       z     vdW  Elec       q    Type
REMARK                         _______ _______ _______ _____ _____    ______ ____
ATOM      1  N   TYR I   1      13.255  -8.693  11.561  0.00  0.00    +0.000 N 
ATOM      2  CA  TYR I   1      12.210  -9.663  11.265  0.00  0.00    +0.000 C 
ATOM      3  C   TYR I   1      11.101  -9.094  10.385  0.00  0.00    +0.000 C 
ATOM      4  O   TYR I   1      10.583  -9.795   9.511  0.00  0.00    +0.000 OA
ATOM      5  CB  TYR I   1      11.616 -10.231  12.561  0.00  0.00    +0.000 C 
ATOM      6  CG  TYR I   1      10.629 -11.320  12.233  0.00  0.00    +0.000 A 
ATOM      7  CD1 TYR I   1      11.064 -12.583  11.891  0.00  0.00    +0.000 A 
ATOM      8  CD2 TYR I   1       9.262 -11.061  12.222  0.00  0.00    +0.000 A 
ATOM      9  CE1 TYR I   1      10.166 -13.582  11.553  0.00  0.00    +0.000 A 
ATOM     10  CE2 TYR I   1       8.356 -12.056  11.870  0.00  0.00    +0.000 A 
ATOM     11  CZ  TYR I   1       8.821 -13.305  11.548  0.00  0.00    +0.000 A 
ATOM     12  OH  TYR I   1       7.920 -14.276  11.204  0.00  0.00    +0.000 OA
ATOM     13  N   ASN I   2      10.746  -7.839  10.581  0.00  0.00    +0.000 N 
ATOM     14  CA  ASN I   2       9.594  -7.221   9.944  0.00  0.00    +0.000 C 
ATOM     15  C   ASN I   2       9.979  -6.490   8.656  0.00  0.00    +0.000 C 
ATOM     16  O   ASN I   2      11.096  -6.000   8.515  0.00  0.00    +0.000 OA
ATOM     17  CB  ASN I   2       8.934  -6.273  10.940  0.00  0.00    +0.000 C 
ATOM     18  CG  ASN I   2       8.429  -7.006  12.168  0.00  0.00    +0.000 C 
ATOM     19  OD1 ASN I   2       7.349  -7.605  12.147  0.00  0.00    +0.000 OA
ATOM     20  ND2 ASN I   2       9.219  -7.004  13.222  0.00  0.00    +0.000 N 
ATOM     21  H   TYR I   1      13.637  -8.328  10.689  0.00  0.00    +0.000 HD
ATOM     22  H   TYR I   1      13.998  -9.145  12.094  0.00  0.00    +0.000 HD
ATOM     23  H   TYR I   1      12.863  -7.927  12.108  0.00  0.00    +0.000 HD
ATOM     24  H   TYR I   1       8.220 -15.135  10.981  0.00  0.00    +0.000 HD
ATOM     25  H   ASN I   2      11.290  -7.291  11.191  0.00  0.00    +0.000 HD
ATOM     26  H   ASN I   2      10.072  -6.513  13.197  0.00  0.00    +0.000 HD
ATOM     27  H   ASN I   2       8.956  -7.493  14.035  0.00  0.00    +0.000 HD
TER 
REMARK  Name = /data/user_data/xianyang/t3-aimnet-affinity-balanced/L2/Q92793/pocket.pdb
REMARK                            x       y       z     vdW  Elec       q    Type
REMARK                         _______ _______ _______ _____ _____    ______ ____
ATOM      1  N   ARG J   1       3.762  -2.004   9.772  0.00  0.00    +0.000 N 
ATOM      2  CA  ARG J   1       3.506  -1.150  10.926  0.00  0.00    +0.000 C 
ATOM      3  C   ARG J   1       4.542  -1.372  12.021  0.00  0.00    +0.000 C 
ATOM      4  O   ARG J   1       5.028  -0.406  12.615  0.00  0.00    +0.000 OA
ATOM      5  CB  ARG J   1       2.109  -1.396  11.483  0.00  0.00    +0.000 C 
ATOM      6  CG  ARG J   1       0.951  -0.932  10.606  0.00  0.00    +0.000 C 
ATOM      7  CD  ARG J   1      -0.344  -1.447  11.215  0.00  0.00    +0.000 C 
ATOM      8  NE  ARG J   1      -0.328  -2.905  11.201  0.00  0.00    +0.000 N 
ATOM      9  CZ  ARG J   1      -1.050  -3.683  11.993  0.00  0.00    +0.000 C 
ATOM     10  NH2 ARG J   1      -1.864  -3.179  12.905  0.00  0.00    +0.000 N 
ATOM     11  NH1 ARG J   1      -0.928  -5.005  11.885  0.00  0.00    +0.000 N 
ATOM     12  N   VAL J   2       4.873  -2.629  12.327  0.00  0.00    +0.000 N 
ATOM     13  CA  VAL J   2       5.826  -2.875  13.418  0.00  0.00    +0.000 C 
ATOM     14  C   VAL J   2       7.167  -2.228  13.097  0.00  0.00    +0.000 C 
ATOM     15  O   VAL J   2       7.820  -1.628  13.971  0.00  0.00    +0.000 OA
ATOM     16  CB  VAL J   2       5.979  -4.391  13.695  0.00  0.00    +0.000 C 
ATOM     17  CG2 VAL J   2       7.158  -4.633  14.672  0.00  0.00    +0.000 C 
ATOM     18  CG1 VAL J   2       4.702  -5.001  14.279  0.00  0.00    +0.000 C 
ATOM     19  H   ARG J   1       3.054  -1.833   9.058  0.00  0.00    +0.000 HD
ATOM     20  H   ARG J   1       3.726  -2.982  10.058  0.00  0.00    +0.000 HD
ATOM     21  H   ARG J   1       4.685  -1.794   9.392  0.00  0.00    +0.000 HD
ATOM     22  H   ARG J   1       0.266  -3.346  10.552  0.00  0.00    +0.000 HD
ATOM     23  H   ARG J   1      -1.961  -2.203  12.993  0.00  0.00    +0.000 HD
ATOM     24  H   ARG J   1      -2.373  -3.779  13.496  0.00  0.00    +0.000 HD
ATOM     25  H   ARG J   1      -0.325  -5.390  11.209  0.00  0.00    +0.000 HD
ATOM     26  H   ARG J   1      -1.441  -5.597  12.481  0.00  0.00    +0.000 HD
ATOM     27  H   VAL J   2       4.483  -3.382  11.827  0.00  0.00    +0.000 HD
TER 
REMARK  Name = /data/user_data/xianyang/t3-aimnet-affinity-balanced/L2/Q92793/pocket.pdb
REMARK                            x       y       z     vdW  Elec       q    Type
REMARK                         _______ _______ _______ _____ _____    ______ ____
ATOM      1  N   PHE K   1       6.726   1.576  13.393  0.00  0.00    +0.000 N 
ATOM      2  CA  PHE K   1       6.572   1.907  14.806  0.00  0.00    +0.000 C 
ATOM      3  C   PHE K   1       7.901   1.786  15.527  0.00  0.00    +0.000 C 
ATOM      4  O   PHE K   1       8.232   2.610  16.393  0.00  0.00    +0.000 OA
ATOM      5  CB  PHE K   1       5.547   0.995  15.459  0.00  0.00    +0.000 C 
ATOM      6  CG  PHE K   1       4.120   1.281  15.042  0.00  0.00    +0.000 A 
ATOM      7  CD1 PHE K   1       3.828   2.306  14.157  0.00  0.00    +0.000 A 
ATOM      8  CD2 PHE K   1       3.085   0.499  15.526  0.00  0.00    +0.000 A 
ATOM      9  CE1 PHE K   1       2.520   2.554  13.773  0.00  0.00    +0.000 A 
ATOM     10  CE2 PHE K   1       1.784   0.737  15.146  0.00  0.00    +0.000 A 
ATOM     11  CZ  PHE K   1       1.499   1.762  14.269  0.00  0.00    +0.000 A 
ATOM     12  H   PHE K   1       5.825   1.662  12.923  0.00  0.00    +0.000 HD
ATOM     13  H   PHE K   1       7.066   0.619  13.303  0.00  0.00    +0.000 HD
ATOM     14  H   PHE K   1       7.395   2.216  12.965  0.00  0.00    +0.000 HD
TER 
REMARK  Name = /data/user_data/xianyang/t3-aimnet-affinity-balanced/L2/Q92793/pocket.pdb
REMARK                            x       y       z     vdW  Elec       q    Type
REMARK                         _______ _______ _______ _____ _____    ______ ____
ATOM      1  N   GLU L   1      -3.669  -1.584   8.539  0.00  0.00    +0.000 N 
ATOM      2  CA  GLU L   1      -3.581  -3.049   8.519  0.00  0.00    +0.000 C 
ATOM      3  C   GLU L   1      -3.767  -3.596   7.116  0.00  0.00    +0.000 C 
ATOM      4  O   GLU L   1      -3.007  -4.467   6.678  0.00  0.00    +0.000 OA
ATOM      5  CB  GLU L   1      -4.608  -3.679   9.460  0.00  0.00    +0.000 C 
ATOM      6  CG  GLU L   1      -4.641  -3.083  10.849  0.00  0.00    +0.000 C 
ATOM      7  CD  GLU L   1      -5.792  -3.598  11.695  0.00  0.00    +0.000 C 
ATOM      8  OE1 GLU L   1      -6.730  -4.217  11.128  0.00  0.00    +0.000 OA
ATOM      9  OE2 GLU L   1      -5.757  -3.373  12.929  0.00  0.00    +0.000 OA
ATOM     10  H   GLU L   1      -2.974  -1.193   7.903  0.00  0.00    +0.000 HD
ATOM     11  H   GLU L   1      -3.493  -1.246   9.485  0.00  0.00    +0.000 HD
ATOM     12  H   GLU L   1      -4.601  -1.295   8.242  0.00  0.00    +0.000 HD
TER 
REMARK  Name = /data/user_data/xianyang/t3-aimnet-affinity-balanced/L2/Q92793/pocket.pdb
REMARK                            x       y       z     vdW  Elec       q    Type
REMARK                         _______ _______ _______ _____ _____    ______ ____
ATOM      1  N   GLU M   1      -0.617  -2.518   4.812  0.00  0.00    +0.000 N 
ATOM      2  CA  GLU M   1       0.607  -3.263   5.089  0.00  0.00    +0.000 C 
ATOM      3  C   GLU M   1       0.616  -4.613   4.368  0.00  0.00    +0.000 C 
ATOM      4  O   GLU M   1       1.646  -5.032   3.820  0.00  0.00    +0.000 OA
ATOM      5  CB  GLU M   1       0.723  -3.416   6.606  0.00  0.00    +0.000 C 
ATOM      6  CG  GLU M   1       1.221  -4.715   7.135  0.00  0.00    +0.000 C 
ATOM      7  CD  GLU M   1       1.177  -4.699   8.637  0.00  0.00    +0.000 C 
ATOM      8  OE1 GLU M   1       2.097  -4.123   9.208  0.00  0.00    +0.000 OA
ATOM      9  OE2 GLU M   1       0.229  -5.254   9.244  0.00  0.00    +0.000 OA
ATOM     10  H   GLU M   1      -0.722  -2.400   3.804  0.00  0.00    +0.000 HD
ATOM     11  H   GLU M   1      -0.566  -1.602   5.259  0.00  0.00    +0.000 HD
ATOM     12  H   GLU M   1      -1.418  -3.031   5.180  0.00  0.00    +0.000 HD
TER 
