REMARK  Name = /home/xianyang/aimnet2_score_pipelines/work/L1234-fixed-receptor-eint-20260921/L3/P28347/prepared.pdb
REMARK                            x       y       z     vdW  Elec       q    Type
REMARK                         _______ _______ _______ _____ _____    ______ ____
ATOM      1  CH3 ACE A   1      -2.086  22.943  65.118  0.00  0.00    +0.000 C 
ATOM      2  C   ACE A   1      -1.392  21.586  65.305  0.00  0.00    +0.000 C 
ATOM      3  O   ACE A   1      -0.889  21.026  64.326  0.00  0.00    +0.000 OA
ATOM      4  N   ARG A   2      -1.378  21.060  66.545  0.00  0.00    +0.000 N 
ATOM      5  H   ARG A   2      -1.792  21.625  67.280  0.00  0.00    +0.000 HD
ATOM      6  CA  ARG A   2      -0.735  19.794  66.929  0.00  0.00    +0.000 C 
ATOM      7  C   ARG A   2      -1.695  18.839  67.592  0.00  0.00    +0.000 C 
ATOM      8  O   ARG A   2      -2.347  19.235  68.541  0.00  0.00    +0.000 OA
ATOM      9  CB  ARG A   2       0.375  20.050  67.980  0.00  0.00    +0.000 C 
ATOM     10  CG  ARG A   2       1.693  20.564  67.420  0.00  0.00    +0.000 C 
ATOM     11  CD  ARG A   2       2.320  21.611  68.322  0.00  0.00    +0.000 C 
ATOM     12  NE  ARG A   2       2.157  22.955  67.766  0.00  0.00    +0.000 N 
ATOM     13  HE  ARG A   2       2.238  23.060  66.769  0.00  0.00    +0.000 HD
ATOM     14  CZ  ARG A   2       1.868  24.034  68.488  0.00  0.00    +0.000 C 
ATOM     15  NH1 ARG A   2       1.717  25.214  67.896  0.00  0.00    +0.000 N 
ATOM     16 HH11 ARG A   2       1.819  25.296  66.900  0.00  0.00    +0.000 HD
ATOM     17 HH12 ARG A   2       1.488  26.019  68.447  0.00  0.00    +0.000 HD
ATOM     18  NH2 ARG A   2       1.724  23.941  69.811  0.00  0.00    +0.000 N 
ATOM     19 HH21 ARG A   2       1.779  23.040  70.264  0.00  0.00    +0.000 HD
ATOM     20 HH22 ARG A   2       1.512  24.741  70.374  0.00  0.00    +0.000 HD
ATOM     21  N   LEU A   3      -1.727  17.573  67.161  0.00  0.00    +0.000 N 
ATOM     22  H   LEU A   3      -1.109  17.280  66.423  0.00  0.00    +0.000 HD
ATOM     23  CA  LEU A   3      -2.511  16.571  67.860  0.00  0.00    +0.000 C 
ATOM     24  C   LEU A   3      -1.646  16.141  69.010  0.00  0.00    +0.000 C 
ATOM     25  O   LEU A   3      -0.515  15.697  68.822  0.00  0.00    +0.000 OA
ATOM     26  CB  LEU A   3      -2.840  15.368  66.987  0.00  0.00    +0.000 C 
ATOM     27  CG  LEU A   3      -3.610  14.272  67.700  0.00  0.00    +0.000 C 
ATOM     28  CD1 LEU A   3      -4.958  14.765  68.160  0.00  0.00    +0.000 C 
ATOM     29  CD2 LEU A   3      -3.819  13.083  66.794  0.00  0.00    +0.000 C 
ATOM     30  N   VAL A   4      -2.136  16.340  70.206  0.00  0.00    +0.000 N 
ATOM     31  H   VAL A   4      -3.049  16.773  70.297  0.00  0.00    +0.000 HD
ATOM     32  CA  VAL A   4      -1.426  16.009  71.429  0.00  0.00    +0.000 C 
ATOM     33  C   VAL A   4      -1.868  14.662  71.965  0.00  0.00    +0.000 C 
ATOM     34  O   VAL A   4      -1.051  13.900  72.478  0.00  0.00    +0.000 OA
ATOM     35  CB  VAL A   4      -1.666  17.117  72.462  0.00  0.00    +0.000 C 
ATOM     36  CG1 VAL A   4      -1.025  16.768  73.791  0.00  0.00    +0.000 C 
ATOM     37  CG2 VAL A   4      -1.137  18.432  71.934  0.00  0.00    +0.000 C 
ATOM     38  N   GLU A   5      -3.156  14.358  71.831  0.00  0.00    +0.000 N 
ATOM     39  H   GLU A   5      -3.795  15.031  71.432  0.00  0.00    +0.000 HD
ATOM     40  CA  GLU A   5      -3.685  13.116  72.334  0.00  0.00    +0.000 C 
ATOM     41  C   GLU A   5      -4.928  12.727  71.613  0.00  0.00    +0.000 C 
ATOM     42  O   GLU A   5      -5.737  13.567  71.234  0.00  0.00    +0.000 OA
ATOM     43  CB  GLU A   5      -3.994  13.254  73.832  0.00  0.00    +0.000 C 
ATOM     44  CG  GLU A   5      -4.013  11.942  74.608  0.00  0.00    +0.000 C 
ATOM     45  CD  GLU A   5      -5.399  11.424  74.960  0.00  0.00    +0.000 C 
ATOM     46  OE1 GLU A   5      -6.387  12.180  74.794  0.00  0.00    +0.000 OA
ATOM     47  OE2 GLU A   5      -5.496  10.245  75.375  0.00  0.00    +0.000 OA
ATOM     48  N   PHE A   6      -5.084  11.435  71.428  0.00  0.00    +0.000 N 
ATOM     49  H   PHE A   6      -4.381  10.804  71.803  0.00  0.00    +0.000 HD
ATOM     50  CA  PHE A   6      -6.291  10.851  70.878  0.00  0.00    +0.000 C 
ATOM     51  C   PHE A   6      -6.450   9.496  71.575  0.00  0.00    +0.000 C 
ATOM     52  O   PHE A   6      -5.453   8.829  71.845  0.00  0.00    +0.000 OA
ATOM     53  CB  PHE A   6      -6.202  10.698  69.336  0.00  0.00    +0.000 C 
ATOM     54  CG  PHE A   6      -7.180   9.696  68.775  0.00  0.00    +0.000 A 
ATOM     55  CD1 PHE A   6      -8.531   9.980  68.725  0.00  0.00    +0.000 A 
ATOM     56  CD2 PHE A   6      -6.766   8.424  68.427  0.00  0.00    +0.000 A 
ATOM     57  CE1 PHE A   6      -9.439   9.030  68.286  0.00  0.00    +0.000 A 
ATOM     58  CE2 PHE A   6      -7.676   7.477  67.989  0.00  0.00    +0.000 A 
ATOM     59  CZ  PHE A   6      -9.002   7.794  67.891  0.00  0.00    +0.000 A 
ATOM     60  N   SER A   7      -7.682   9.098  71.878  0.00  0.00    +0.000 N 
ATOM     61  H   SER A   7      -8.435   9.779  71.860  0.00  0.00    +0.000 HD
ATOM     62  CA  SER A   7      -7.937   7.793  72.464  0.00  0.00    +0.000 C 
ATOM     63  C   SER A   7      -9.391   7.451  72.333  0.00  0.00    +0.000 C 
ATOM     64  O   SER A   7     -10.245   8.262  72.669  0.00  0.00    +0.000 OA
ATOM     65  CB  SER A   7      -7.526   7.744  73.929  0.00  0.00    +0.000 C 
ATOM     66  OG  SER A   7      -8.290   8.675  74.674  0.00  0.00    +0.000 OA
ATOM     67  HG  SER A   7      -7.701   9.431  74.855  0.00  0.00    +0.000 HD
ATOM     68  N   ALA A   8      -9.681   6.276  71.797  0.00  0.00    +0.000 N 
ATOM     69  H   ALA A   8      -8.920   5.636  71.599  0.00  0.00    +0.000 HD
ATOM     70  CA  ALA A   8     -11.049   5.795  71.697  0.00  0.00    +0.000 C 
ATOM     71  C   ALA A   8     -11.127   4.721  72.780  0.00  0.00    +0.000 C 
ATOM     72  O   ALA A   8     -10.250   3.852  72.850  0.00  0.00    +0.000 OA
ATOM     73  CB  ALA A   8     -11.307   5.199  70.326  0.00  0.00    +0.000 C 
ATOM     74  N   PHE A   9     -12.143   4.800  73.649  0.00  0.00    +0.000 N 
ATOM     75  H   PHE A   9     -12.831   5.543  73.562  0.00  0.00    +0.000 HD
ATOM     76  CA  PHE A   9     -12.215   3.915  74.802  0.00  0.00    +0.000 C 
ATOM     77  C   PHE A   9     -13.602   3.365  75.129  0.00  0.00    +0.000 C 
ATOM     78  O   PHE A   9     -14.612   3.816  74.586  0.00  0.00    +0.000 OA
ATOM     79  CB  PHE A   9     -11.645   4.660  76.036  0.00  0.00    +0.000 C 
ATOM     80  CG  PHE A   9     -12.378   5.953  76.334  0.00  0.00    +0.000 A 
ATOM     81  CD1 PHE A   9     -13.542   5.955  77.083  0.00  0.00    +0.000 A 
ATOM     82  CD2 PHE A   9     -11.905   7.164  75.859  0.00  0.00    +0.000 A 
ATOM     83  CE1 PHE A   9     -14.227   7.142  77.333  0.00  0.00    +0.000 A 
ATOM     84  CE2 PHE A   9     -12.595   8.347  76.107  0.00  0.00    +0.000 A 
ATOM     85  CZ  PHE A   9     -13.749   8.329  76.845  0.00  0.00    +0.000 A 
ATOM     86  N   NME A  10     -13.625   2.382  76.044  0.00  0.00    +0.000 N 
ATOM     87  H   NME A  10     -12.721   2.018  76.334  0.00  0.00    +0.000 HD
ATOM     88  C   NME A  10     -14.816   1.786  76.634  0.00  0.00    +0.000 C 
TER 
REMARK  Name = /home/xianyang/aimnet2_score_pipelines/work/L1234-fixed-receptor-eint-20260921/L3/P28347/prepared.pdb
REMARK                            x       y       z     vdW  Elec       q    Type
REMARK                         _______ _______ _______ _____ _____    ______ ____
ATOM      1  CH3 ACE B   1     -10.233   0.022  78.017  0.00  0.00    +0.000 C 
ATOM      2  C   ACE B   1      -9.994   0.878  76.778  0.00  0.00    +0.000 C 
ATOM      3  O   ACE B   1     -10.956   1.369  76.194  0.00  0.00    +0.000 OA
ATOM      4  N   LEU B   2      -8.742   0.994  76.326  0.00  0.00    +0.000 N 
ATOM      5  H   LEU B   2      -8.007   0.442  76.741  0.00  0.00    +0.000 HD
ATOM      6  CA  LEU B   2      -8.449   1.754  75.107  0.00  0.00    +0.000 C 
ATOM      7  C   LEU B   2      -8.384   0.818  73.920  0.00  0.00    +0.000 C 
ATOM      8  O   LEU B   2      -7.711  -0.209  73.973  0.00  0.00    +0.000 OA
ATOM      9  CB  LEU B   2      -7.125   2.534  75.202  0.00  0.00    +0.000 C 
ATOM     10  CG  LEU B   2      -6.860   3.258  76.518  0.00  0.00    +0.000 C 
ATOM     11  CD1 LEU B   2      -5.496   3.897  76.524  0.00  0.00    +0.000 C 
ATOM     12  CD2 LEU B   2      -7.943   4.280  76.812  0.00  0.00    +0.000 C 
ATOM     13  N   PHE B   3      -9.087   1.172  72.846  0.00  0.00    +0.000 N 
ATOM     14  H   PHE B   3      -9.651   2.012  72.901  0.00  0.00    +0.000 HD
ATOM     15  CA  PHE B   3      -9.067   0.424  71.601  0.00  0.00    +0.000 C 
ATOM     16  C   PHE B   3      -7.868   0.941  70.788  0.00  0.00    +0.000 C 
ATOM     17  O   PHE B   3      -7.093   0.160  70.259  0.00  0.00    +0.000 OA
ATOM     18  CB  PHE B   3     -10.367   0.670  70.825  0.00  0.00    +0.000 C 
ATOM     19  CG  PHE B   3     -11.633   0.265  71.523  0.00  0.00    +0.000 A 
ATOM     20  CD1 PHE B   3     -11.959  -1.072  71.677  0.00  0.00    +0.000 A 
ATOM     21  CD2 PHE B   3     -12.543   1.217  71.941  0.00  0.00    +0.000 A 
ATOM     22  CE1 PHE B   3     -13.141  -1.445  72.293  0.00  0.00    +0.000 A 
ATOM     23  CE2 PHE B   3     -13.730   0.839  72.547  0.00  0.00    +0.000 A 
ATOM     24  CZ  PHE B   3     -14.019  -0.488  72.722  0.00  0.00    +0.000 A 
ATOM     25  N   VAL B   4      -7.731   2.264  70.681  0.00  0.00    +0.000 N 
ATOM     26  H   VAL B   4      -8.370   2.848  71.205  0.00  0.00    +0.000 HD
ATOM     27  CA  VAL B   4      -6.645   2.928  69.972  0.00  0.00    +0.000 C 
ATOM     28  C   VAL B   4      -6.265   4.190  70.780  0.00  0.00    +0.000 C 
ATOM     29  O   VAL B   4      -7.089   4.751  71.494  0.00  0.00    +0.000 OA
ATOM     30  CB  VAL B   4      -7.021   3.285  68.490  0.00  0.00    +0.000 C 
ATOM     31  CG1 VAL B   4      -7.043   2.057  67.592  0.00  0.00    +0.000 C 
ATOM     32  CG2 VAL B   4      -8.353   4.025  68.406  0.00  0.00    +0.000 C 
ATOM     33  N   HIS B   5      -5.024   4.633  70.653  0.00  0.00    +0.000 N 
ATOM     34  H   HIS B   5      -4.367   4.123  70.079  0.00  0.00    +0.000 HD
ATOM     35  CA  HIS B   5      -4.527   5.841  71.298  0.00  0.00    +0.000 C 
ATOM     36  C   HIS B   5      -3.308   6.426  70.570  0.00  0.00    +0.000 C 
ATOM     37  O   HIS B   5      -2.637   5.725  69.808  0.00  0.00    +0.000 OA
ATOM     38  CB  HIS B   5      -4.231   5.612  72.790  0.00  0.00    +0.000 C 
ATOM     39  CG  HIS B   5      -3.295   4.479  73.061  0.00  0.00    +0.000 A 
ATOM     40  ND1 HIS B   5      -1.921   4.660  73.036  0.00  0.00    +0.000 N 
ATOM     41  HD1 HIS B   5      -1.422   5.505  72.817  0.00  0.00    +0.000 HD
ATOM     42  CD2 HIS B   5      -3.563   3.187  73.379  0.00  0.00    +0.000 A 
ATOM     43  CE1 HIS B   5      -1.399   3.474  73.326  0.00  0.00    +0.000 A 
ATOM     44  NE2 HIS B   5      -2.348   2.556  73.541  0.00  0.00    +0.000 NA
ATOM     45  N   ILE B   6      -3.072   7.722  70.740  0.00  0.00    +0.000 N 
ATOM     46  H   ILE B   6      -3.719   8.248  71.329  0.00  0.00    +0.000 HD
ATOM     47  CA  ILE B   6      -1.942   8.462  70.183  0.00  0.00    +0.000 C 
ATOM     48  C   ILE B   6      -1.566   9.493  71.249  0.00  0.00    +0.000 C 
ATOM     49  O   ILE B   6      -2.448  10.161  71.787  0.00  0.00    +0.000 OA
ATOM     50  CB  ILE B   6      -2.283   9.181  68.847  0.00  0.00    +0.000 C 
ATOM     51  CG1 ILE B   6      -2.539   8.208  67.684  0.00  0.00    +0.000 C 
ATOM     52  CG2 ILE B   6      -1.208  10.197  68.479  0.00  0.00    +0.000 C 
ATOM     53  CD1 ILE B   6      -3.132   8.871  66.467  0.00  0.00    +0.000 C 
ATOM     54  N   GLY B   7      -0.277   9.613  71.549  0.00  0.00    +0.000 N 
ATOM     55  H   GLY B   7       0.391   9.083  71.014  0.00  0.00    +0.000 HD
ATOM     56  CA  GLY B   7       0.229  10.594  72.502  0.00  0.00    +0.000 C 
ATOM     57  C   GLY B   7       0.266  10.102  73.928  0.00  0.00    +0.000 C 
ATOM     58  O   GLY B   7       0.169  10.902  74.868  0.00  0.00    +0.000 OA
ATOM     59  N   NME B   8       0.422   8.777  74.102  0.00  0.00    +0.000 N 
ATOM     60  H   NME B   8       0.486   8.203  73.281  0.00  0.00    +0.000 HD
ATOM     61  C   NME B   8       0.440   8.131  75.419  0.00  0.00    +0.000 C 
TER 
REMARK  Name = /home/xianyang/aimnet2_score_pipelines/work/L1234-fixed-receptor-eint-20260921/L3/P28347/prepared.pdb
REMARK                            x       y       z     vdW  Elec       q    Type
REMARK                         _______ _______ _______ _____ _____    ______ ____
ATOM      1  CH3 ACE C   1      -2.546   6.658  60.376  0.00  0.00    +0.000 C 
ATOM      2  C   ACE C   1      -3.020   5.216  60.243  0.00  0.00    +0.000 C 
ATOM      3  O   ACE C   1      -4.191   4.958  59.952  0.00  0.00    +0.000 OA
ATOM      4  N   LYS C   2      -2.110   4.276  60.449  0.00  0.00    +0.000 N 
ATOM      5  H   LYS C   2      -1.185   4.554  60.740  0.00  0.00    +0.000 HD
ATOM      6  CA  LYS C   2      -2.445   2.862  60.444  0.00  0.00    +0.000 C 
ATOM      7  C   LYS C   2      -2.594   2.445  61.915  0.00  0.00    +0.000 C 
ATOM      8  O   LYS C   2      -1.668   2.638  62.691  0.00  0.00    +0.000 OA
ATOM      9  CB  LYS C   2      -1.329   2.056  59.763  0.00  0.00    +0.000 C 
ATOM     10  CG  LYS C   2      -1.459   0.559  59.930  0.00  0.00    +0.000 C 
ATOM     11  CD  LYS C   2      -2.692   0.009  59.276  0.00  0.00    +0.000 C 
ATOM     12  CE  LYS C   2      -2.852  -1.440  59.630  0.00  0.00    +0.000 C 
ATOM     13  NZ  LYS C   2      -2.229  -2.340  58.616  0.00  0.00    +0.000 N 
ATOM     14  HZ1 LYS C   2      -2.704  -2.284  57.725  0.00  0.00    +0.000 HD
ATOM     15  HZ2 LYS C   2      -1.247  -2.138  58.502  0.00  0.00    +0.000 HD
ATOM     16  HZ3 LYS C   2      -2.302  -3.312  58.929  0.00  0.00    +0.000 HD
ATOM     17  N   PHE C   3      -3.751   1.901  62.298  0.00  0.00    +0.000 N 
ATOM     18  H   PHE C   3      -4.520   1.859  61.639  0.00  0.00    +0.000 HD
ATOM     19  CA  PHE C   3      -3.992   1.484  63.669  0.00  0.00    +0.000 C 
ATOM     20  C   PHE C   3      -4.142  -0.009  63.775  0.00  0.00    +0.000 C 
ATOM     21  O   PHE C   3      -4.759  -0.632  62.919  0.00  0.00    +0.000 OA
ATOM     22  CB  PHE C   3      -5.307   2.071  64.197  0.00  0.00    +0.000 C 
ATOM     23  CG  PHE C   3      -5.296   3.523  64.576  0.00  0.00    +0.000 A 
ATOM     24  CD1 PHE C   3      -4.655   3.950  65.727  0.00  0.00    +0.000 A 
ATOM     25  CD2 PHE C   3      -5.968   4.459  63.811  0.00  0.00    +0.000 A 
ATOM     26  CE1 PHE C   3      -4.670   5.288  66.092  0.00  0.00    +0.000 A 
ATOM     27  CE2 PHE C   3      -5.983   5.794  64.182  0.00  0.00    +0.000 A 
ATOM     28  CZ  PHE C   3      -5.331   6.200  65.317  0.00  0.00    +0.000 A 
ATOM     29  N   TRP C   4      -3.672  -0.567  64.886  0.00  0.00    +0.000 N 
ATOM     30  H   TRP C   4      -3.202   0.019  65.559  0.00  0.00    +0.000 HD
ATOM     31  CA  TRP C   4      -3.863  -1.956  65.260  0.00  0.00    +0.000 C 
ATOM     32  C   TRP C   4      -4.662  -1.850  66.565  0.00  0.00    +0.000 C 
ATOM     33  O   TRP C   4      -4.093  -1.590  67.609  0.00  0.00    +0.000 OA
ATOM     34  CB  TRP C   4      -2.527  -2.639  65.489  0.00  0.00    +0.000 C 
ATOM     35  CG  TRP C   4      -1.801  -2.951  64.223  0.00  0.00    +0.000 A 
ATOM     36  CD1 TRP C   4      -1.875  -4.104  63.505  0.00  0.00    +0.000 A 
ATOM     37  CD2 TRP C   4      -0.831  -2.124  63.562  0.00  0.00    +0.000 A 
ATOM     38  NE1 TRP C   4      -1.017  -4.044  62.429  0.00  0.00    +0.000 N 
ATOM     39  HE1 TRP C   4      -0.964  -4.765  61.712  0.00  0.00    +0.000 HD
ATOM     40  CE2 TRP C   4      -0.381  -2.830  62.427  0.00  0.00    +0.000 A 
ATOM     41  CE3 TRP C   4      -0.308  -0.850  63.811  0.00  0.00    +0.000 A 
ATOM     42  CZ2 TRP C   4       0.585  -2.314  61.558  0.00  0.00    +0.000 A 
ATOM     43  CZ3 TRP C   4       0.644  -0.339  62.945  0.00  0.00    +0.000 A 
ATOM     44  CH2 TRP C   4       1.096  -1.077  61.847  0.00  0.00    +0.000 A 
ATOM     45  N   ALA C   5      -5.993  -1.907  66.456  0.00  0.00    +0.000 N 
ATOM     46  H   ALA C   5      -6.367  -2.189  65.556  0.00  0.00    +0.000 HD
ATOM     47  CA  ALA C   5      -6.943  -1.736  67.543  0.00  0.00    +0.000 C 
ATOM     48  C   ALA C   5      -7.002  -2.912  68.492  0.00  0.00    +0.000 C 
ATOM     49  O   ALA C   5      -7.127  -4.056  68.049  0.00  0.00    +0.000 OA
ATOM     50  CB  ALA C   5      -8.326  -1.479  66.976  0.00  0.00    +0.000 C 
ATOM     51  N   ASP C   6      -6.952  -2.618  69.807  0.00  0.00    +0.000 N 
ATOM     52  H   ASP C   6      -6.856  -1.646  70.082  0.00  0.00    +0.000 HD
ATOM     53  CA  ASP C   6      -7.037  -3.593  70.879  0.00  0.00    +0.000 C 
ATOM     54  C   ASP C   6      -8.493  -3.904  71.140  0.00  0.00    +0.000 C 
ATOM     55  O   ASP C   6      -9.213  -3.068  71.697  0.00  0.00    +0.000 OA
ATOM     56  CB  ASP C   6      -6.411  -3.026  72.156  0.00  0.00    +0.000 C 
ATOM     57  CG  ASP C   6      -6.338  -4.001  73.333  0.00  0.00    +0.000 C 
ATOM     58  OD1 ASP C   6      -7.142  -4.965  73.370  0.00  0.00    +0.000 OA
ATOM     59  OD2 ASP C   6      -5.480  -3.798  74.216  0.00  0.00    +0.000 OA
ATOM     60  N   LEU C   7      -8.915  -5.125  70.773  0.00  0.00    +0.000 N 
ATOM     61  H   LEU C   7      -8.254  -5.736  70.320  0.00  0.00    +0.000 HD
ATOM     62  CA  LEU C   7     -10.294  -5.563  70.986  0.00  0.00    +0.000 C 
ATOM     63  C   LEU C   7     -10.430  -6.568  72.152  0.00  0.00    +0.000 C 
ATOM     64  O   LEU C   7     -11.488  -7.163  72.316  0.00  0.00    +0.000 OA
ATOM     65  CB  LEU C   7     -10.890  -6.134  69.684  0.00  0.00    +0.000 C 
ATOM     66  CG  LEU C   7     -11.705  -5.183  68.778  0.00  0.00    +0.000 C 
ATOM     67  CD1 LEU C   7     -10.844  -4.095  68.184  0.00  0.00    +0.000 C 
ATOM     68  CD2 LEU C   7     -12.365  -5.952  67.647  0.00  0.00    +0.000 C 
ATOM     69  N   ASN C   8      -9.377  -6.753  72.964  0.00  0.00    +0.000 N 
ATOM     70  H   ASN C   8      -8.575  -6.116  72.904  0.00  0.00    +0.000 HD
ATOM     71  CA  ASN C   8      -9.429  -7.662  74.111  0.00  0.00    +0.000 C 
ATOM     72  C   ASN C   8     -10.054  -6.918  75.299  0.00  0.00    +0.000 C 
ATOM     73  O   ASN C   8      -9.359  -6.303  76.110  0.00  0.00    +0.000 OA
ATOM     74  CB  ASN C   8      -8.033  -8.219  74.442  0.00  0.00    +0.000 C 
ATOM     75  CG  ASN C   8      -7.948  -8.989  75.751  0.00  0.00    +0.000 C 
ATOM     76  OD1 ASN C   8      -8.412 -10.137  75.874  0.00  0.00    +0.000 OA
ATOM     77  ND2 ASN C   8      -7.362  -8.354  76.771  0.00  0.00    +0.000 N 
ATOM     78 HD21 ASN C   8      -7.059  -7.399  76.631  0.00  0.00    +0.000 HD
ATOM     79 HD22 ASN C   8      -7.379  -8.794  77.669  0.00  0.00    +0.000 HD
ATOM     80  N   NME C   9     -11.379  -6.965  75.376  0.00  0.00    +0.000 N 
ATOM     81  H   NME C   9     -11.867  -7.384  74.604  0.00  0.00    +0.000 HD
ATOM     82  C   NME C   9     -12.144  -6.309  76.425  0.00  0.00    +0.000 C 
TER 
REMARK  Name = /home/xianyang/aimnet2_score_pipelines/work/L1234-fixed-receptor-eint-20260921/L3/P28347/prepared.pdb
REMARK                            x       y       z     vdW  Elec       q    Type
REMARK                         _______ _______ _______ _____ _____    ______ ____
ATOM      1  CH3 ACE D   1     -17.980   4.319  74.512  0.00  0.00    +0.000 C 
ATOM      2  C   ACE D   1     -17.670   5.734  74.111  0.00  0.00    +0.000 C 
ATOM      3  O   ACE D   1     -18.578   6.434  73.670  0.00  0.00    +0.000 OA
ATOM      4  N   GLY D   2     -16.437   6.177  74.322  0.00  0.00    +0.000 N 
ATOM      5  H   GLY D   2     -15.710   5.527  74.605  0.00  0.00    +0.000 HD
ATOM      6  CA  GLY D   2     -16.090   7.558  74.027  0.00  0.00    +0.000 C 
ATOM      7  C   GLY D   2     -14.792   7.795  73.294  0.00  0.00    +0.000 C 
ATOM      8  O   GLY D   2     -13.989   6.888  73.094  0.00  0.00    +0.000 OA
ATOM      9  N   VAL D   3     -14.599   9.038  72.873  0.00  0.00    +0.000 N 
ATOM     10  H   VAL D   3     -15.330   9.722  73.039  0.00  0.00    +0.000 HD
ATOM     11  CA  VAL D   3     -13.411   9.480  72.180  0.00  0.00    +0.000 C 
ATOM     12  C   VAL D   3     -12.899  10.750  72.880  0.00  0.00    +0.000 C 
ATOM     13  O   VAL D   3     -13.661  11.685  73.111  0.00  0.00    +0.000 OA
ATOM     14  CB  VAL D   3     -13.696   9.745  70.684  0.00  0.00    +0.000 C 
ATOM     15  CG1 VAL D   3     -12.453  10.281  69.985  0.00  0.00    +0.000 C 
ATOM     16  CG2 VAL D   3     -14.203   8.487  69.984  0.00  0.00    +0.000 C 
ATOM     17  N   THR D   4     -11.623  10.771  73.254  0.00  0.00    +0.000 N 
ATOM     18  H   THR D   4     -11.035   9.954  73.097  0.00  0.00    +0.000 HD
ATOM     19  CA  THR D   4     -11.014  11.945  73.851  0.00  0.00    +0.000 C 
ATOM     20  C   THR D   4      -9.882  12.386  72.939  0.00  0.00    +0.000 C 
ATOM     21  O   THR D   4      -9.084  11.561  72.486  0.00  0.00    +0.000 OA
ATOM     22  CB  THR D   4     -10.592  11.700  75.324  0.00  0.00    +0.000 C 
ATOM     23  OG1 THR D   4     -11.754  11.689  76.161  0.00  0.00    +0.000 OA
ATOM     24  HG1 THR D   4     -12.008  12.597  76.312  0.00  0.00    +0.000 HD
ATOM     25  CG2 THR D   4      -9.645  12.784  75.861  0.00  0.00    +0.000 C 
ATOM     26  N   SER D   5      -9.862  13.668  72.589  0.00  0.00    +0.000 N 
ATOM     27  H   SER D   5     -10.509  14.312  73.015  0.00  0.00    +0.000 HD
ATOM     28  CA  SER D   5      -8.797  14.221  71.759  0.00  0.00    +0.000 C 
ATOM     29  C   SER D   5      -8.337  15.573  72.298  0.00  0.00    +0.000 C 
ATOM     30  O   SER D   5      -9.058  16.218  73.054  0.00  0.00    +0.000 OA
ATOM     31  CB  SER D   5      -9.229  14.330  70.301  0.00  0.00    +0.000 C 
ATOM     32  OG  SER D   5     -10.536  14.864  70.180  0.00  0.00    +0.000 OA
ATOM     33  HG  SER D   5     -10.596  15.645  70.737  0.00  0.00    +0.000 HD
ATOM     34  N   GLN D   6      -7.126  15.990  71.940  0.00  0.00    +0.000 N 
ATOM     35  H   GLN D   6      -6.507  15.343  71.458  0.00  0.00    +0.000 HD
ATOM     36  CA  GLN D   6      -6.605  17.274  72.384  0.00  0.00    +0.000 C 
ATOM     37  C   GLN D   6      -5.657  17.850  71.360  0.00  0.00    +0.000 C 
ATOM     38  O   GLN D   6      -4.708  17.193  70.980  0.00  0.00    +0.000 OA
ATOM     39  CB  GLN D   6      -5.905  17.156  73.739  0.00  0.00    +0.000 C 
ATOM     40  CG  GLN D   6      -5.466  18.522  74.276  0.00  0.00    +0.000 C 
ATOM     41  CD  GLN D   6      -4.687  18.442  75.556  0.00  0.00    +0.000 C 
ATOM     42  OE1 GLN D   6      -5.068  17.730  76.491  0.00  0.00    +0.000 OA
ATOM     43  NE2 GLN D   6      -3.578  19.176  75.629  0.00  0.00    +0.000 N 
ATOM     44 HE21 GLN D   6      -3.023  19.092  76.461  0.00  0.00    +0.000 HD
ATOM     45 HE22 GLN D   6      -3.225  19.723  74.858  0.00  0.00    +0.000 HD
ATOM     46  N   TYR D   7      -5.917  19.075  70.918  0.00  0.00    +0.000 N 
ATOM     47  H   TYR D   7      -6.665  19.593  71.351  0.00  0.00    +0.000 HD
ATOM     48  CA  TYR D   7      -5.073  19.801  69.981  0.00  0.00    +0.000 C 
ATOM     49  C   TYR D   7      -4.428  21.020  70.671  0.00  0.00    +0.000 C 
ATOM     50  O   TYR D   7      -4.856  21.424  71.754  0.00  0.00    +0.000 OA
ATOM     51  CB  TYR D   7      -5.883  20.241  68.754  0.00  0.00    +0.000 C 
ATOM     52  CG  TYR D   7      -6.534  19.081  68.042  0.00  0.00    +0.000 A 
ATOM     53  CD1 TYR D   7      -5.884  18.417  67.008  0.00  0.00    +0.000 A 
ATOM     54  CD2 TYR D   7      -7.777  18.607  68.440  0.00  0.00    +0.000 A 
ATOM     55  CE1 TYR D   7      -6.474  17.339  66.362  0.00  0.00    +0.000 A 
ATOM     56  CE2 TYR D   7      -8.364  17.515  67.815  0.00  0.00    +0.000 A 
ATOM     57  CZ  TYR D   7      -7.706  16.881  66.781  0.00  0.00    +0.000 A 
ATOM     58  OH  TYR D   7      -8.296  15.810  66.178  0.00  0.00    +0.000 OA
ATOM     59  HH  TYR D   7      -9.134  15.579  66.580  0.00  0.00    +0.000 HD
ATOM     60  N   GLU D   8      -3.403  21.610  70.062  0.00  0.00    +0.000 N 
ATOM     61  H   GLU D   8      -3.006  21.181  69.237  0.00  0.00    +0.000 HD
ATOM     62  CA  GLU D   8      -2.736  22.770  70.661  0.00  0.00    +0.000 C 
ATOM     63  C   GLU D   8      -2.279  23.760  69.615  0.00  0.00    +0.000 C 
ATOM     64  O   GLU D   8      -2.035  23.372  68.471  0.00  0.00    +0.000 OA
ATOM     65  CB  GLU D   8      -1.512  22.310  71.435  0.00  0.00    +0.000 C 
ATOM     66  CG  GLU D   8      -1.774  21.908  72.869  0.00  0.00    +0.000 C 
ATOM     67  CD  GLU D   8      -0.575  21.259  73.532  0.00  0.00    +0.000 C 
ATOM     68  OE1 GLU D   8       0.504  21.171  72.891  0.00  0.00    +0.000 OA
ATOM     69  OE2 GLU D   8      -0.731  20.812  74.692  0.00  0.00    +0.000 OA
ATOM     70  N   NME D   9      -2.081  25.028  70.020  0.00  0.00    +0.000 N 
ATOM     71  H   NME D   9      -2.296  25.279  70.974  0.00  0.00    +0.000 HD
ATOM     72  C   NME D   9      -1.615  26.058  69.092  0.00  0.00    +0.000 C 
TER 
REMARK  Name = /home/xianyang/aimnet2_score_pipelines/work/L1234-fixed-receptor-eint-20260921/L3/P28347/prepared.pdb
REMARK                            x       y       z     vdW  Elec       q    Type
REMARK                         _______ _______ _______ _____ _____    ______ ____
ATOM      1  CH3 ACE E   1     -13.478  18.694  64.039  0.00  0.00    +0.000 C 
ATOM      2  C   ACE E   1     -14.488  17.815  63.357  0.00  0.00    +0.000 C 
ATOM      3  O   ACE E   1     -15.461  17.416  63.989  0.00  0.00    +0.000 OA
ATOM      4  N   SER E   2     -14.229  17.446  62.106  0.00  0.00    +0.000 N 
ATOM      5  H   SER E   2     -13.371  17.758  61.661  0.00  0.00    +0.000 HD
ATOM      6  CA  SER E   2     -15.100  16.548  61.381  0.00  0.00    +0.000 C 
ATOM      7  C   SER E   2     -14.539  15.138  61.470  0.00  0.00    +0.000 C 
ATOM      8  O   SER E   2     -13.377  14.935  61.161  0.00  0.00    +0.000 OA
ATOM      9  CB  SER E   2     -15.183  16.966  59.915  0.00  0.00    +0.000 C 
ATOM     10  OG  SER E   2     -15.768  15.946  59.119  0.00  0.00    +0.000 OA
ATOM     11  HG  SER E   2     -16.704  16.215  58.917  0.00  0.00    +0.000 HD
ATOM     12  N   THR E   3     -15.359  14.165  61.847  0.00  0.00    +0.000 N 
ATOM     13  H   THR E   3     -16.323  14.412  62.060  0.00  0.00    +0.000 HD
ATOM     14  CA  THR E   3     -14.953  12.770  61.889  0.00  0.00    +0.000 C 
ATOM     15  C   THR E   3     -15.908  12.043  60.999  0.00  0.00    +0.000 C 
ATOM     16  O   THR E   3     -17.087  12.002  61.324  0.00  0.00    +0.000 OA
ATOM     17  CB  THR E   3     -15.105  12.200  63.295  0.00  0.00    +0.000 C 
ATOM     18  OG1 THR E   3     -14.270  12.921  64.192  0.00  0.00    +0.000 OA
ATOM     19  HG1 THR E   3     -14.162  13.803  63.822  0.00  0.00    +0.000 HD
ATOM     20  CG2 THR E   3     -14.781  10.723  63.354  0.00  0.00    +0.000 C 
ATOM     21  N   LYS E   4     -15.451  11.494  59.863  0.00  0.00    +0.000 N 
ATOM     22  H   LYS E   4     -14.477  11.627  59.603  0.00  0.00    +0.000 HD
ATOM     23  CA  LYS E   4     -16.363  10.792  58.951  0.00  0.00    +0.000 C 
ATOM     24  C   LYS E   4     -16.111   9.308  58.987  0.00  0.00    +0.000 C 
ATOM     25  O   LYS E   4     -15.002   8.873  58.733  0.00  0.00    +0.000 OA
ATOM     26  CB  LYS E   4     -16.261  11.317  57.511  0.00  0.00    +0.000 C 
ATOM     27  CG  LYS E   4     -16.059  12.823  57.388  0.00  0.00    +0.000 C 
ATOM     28  CD  LYS E   4     -16.716  13.344  56.123  0.00  0.00    +0.000 C 
ATOM     29  CE  LYS E   4     -15.991  14.549  55.585  0.00  0.00    +0.000 C 
ATOM     30  NZ  LYS E   4     -16.260  14.733  54.136  0.00  0.00    +0.000 N 
ATOM     31  HZ1 LYS E   4     -15.513  14.344  53.579  0.00  0.00    +0.000 HD
ATOM     32  HZ2 LYS E   4     -17.134  14.284  53.897  0.00  0.00    +0.000 HD
ATOM     33  HZ3 LYS E   4     -16.353  15.721  53.938  0.00  0.00    +0.000 HD
ATOM     34  N   VAL E   5     -17.104   8.533  59.388  0.00  0.00    +0.000 N 
ATOM     35  H   VAL E   5     -18.021   8.958  59.491  0.00  0.00    +0.000 HD
ATOM     36  CA  VAL E   5     -16.997   7.082  59.420  0.00  0.00    +0.000 C 
ATOM     37  C   VAL E   5     -17.324   6.630  58.015  0.00  0.00    +0.000 C 
ATOM     38  O   VAL E   5     -18.403   6.946  57.514  0.00  0.00    +0.000 OA
ATOM     39  CB  VAL E   5     -17.981   6.488  60.439  0.00  0.00    +0.000 C 
ATOM     40  CG1 VAL E   5     -17.954   4.968  60.393  0.00  0.00    +0.000 C 
ATOM     41  CG2 VAL E   5     -17.683   7.013  61.830  0.00  0.00    +0.000 C 
ATOM     42  N   CYS E   6     -16.381   5.956  57.343  0.00  0.00    +0.000 N 
ATOM     43  H   CYS E   6     -15.519   5.692  57.812  0.00  0.00    +0.000 HD
ATOM     44  CA  CYS E   6     -16.553   5.532  55.959  0.00  0.00    +0.000 C 
ATOM     45  C   CYS E   6     -16.591   4.036  55.795  0.00  0.00    +0.000 C 
ATOM     46  O   CYS E   6     -15.751   3.330  56.322  0.00  0.00    +0.000 OA
ATOM     47  CB  CYS E   6     -15.466   6.138  55.083  0.00  0.00    +0.000 C 
ATOM     48  SG  CYS E   6     -15.354   7.937  55.176  0.00  0.00    +0.000 S 
ATOM     49  HG  CYS E   6     -15.192   8.007  56.507  0.00  0.00    +0.000 HD
ATOM     50  N   NME E   7     -17.512   3.561  54.990  0.00  0.00    +0.000 N 
ATOM     51  H   NME E   7     -18.166   4.208  54.578  0.00  0.00    +0.000 HD
ATOM     52  C   NME E   7     -17.649   2.153  54.673  0.00  0.00    +0.000 C 
TER 
REMARK  Name = /home/xianyang/aimnet2_score_pipelines/work/L1234-fixed-receptor-eint-20260921/L3/P28347/prepared.pdb
REMARK                            x       y       z     vdW  Elec       q    Type
REMARK                         _______ _______ _______ _____ _____    ______ ____
ATOM      1  CH3 ACE F   1     -21.730   9.036  59.706  0.00  0.00    +0.000 C 
ATOM      2  C   ACE F   1     -20.760  10.237  59.648  0.00  0.00    +0.000 C 
ATOM      3  O   ACE F   1     -19.667  10.117  59.095  0.00  0.00    +0.000 OA
ATOM      4  N   GLU F   2     -21.148  11.385  60.208  0.00  0.00    +0.000 N 
ATOM      5  H   GLU F   2     -22.077  11.477  60.586  0.00  0.00    +0.000 HD
ATOM      6  CA  GLU F   2     -20.238  12.518  60.343  0.00  0.00    +0.000 C 
ATOM      7  C   GLU F   2     -20.445  13.214  61.668  0.00  0.00    +0.000 C 
ATOM      8  O   GLU F   2     -21.464  13.868  61.868  0.00  0.00    +0.000 OA
ATOM      9  CB  GLU F   2     -20.312  13.550  59.213  0.00  0.00    +0.000 C 
ATOM     10  CG  GLU F   2     -19.204  14.591  59.357  0.00  0.00    +0.000 C 
ATOM     11  CD  GLU F   2     -19.269  15.839  58.495  0.00  0.00    +0.000 C 
ATOM     12  OE1 GLU F   2     -20.346  16.110  57.917  0.00  0.00    +0.000 OA
ATOM     13  OE2 GLU F   2     -18.248  16.560  58.415  0.00  0.00    +0.000 OA
ATOM     14  N   LYS F   3     -19.482  13.098  62.560  0.00  0.00    +0.000 N 
ATOM     15  H   LYS F   3     -18.616  12.650  62.274  0.00  0.00    +0.000 HD
ATOM     16  CA  LYS F   3     -19.541  13.808  63.830  0.00  0.00    +0.000 C 
ATOM     17  C   LYS F   3     -18.846  15.157  63.577  0.00  0.00    +0.000 C 
ATOM     18  O   LYS F   3     -17.793  15.193  62.934  0.00  0.00    +0.000 OA
ATOM     19  CB  LYS F   3     -18.856  13.005  64.937  0.00  0.00    +0.000 C 
ATOM     20  CG  LYS F   3     -19.294  13.428  66.323  0.00  0.00    +0.000 C 
ATOM     21  CD  LYS F   3     -18.276  13.021  67.362  0.00  0.00    +0.000 C 
ATOM     22  CE  LYS F   3     -18.186  11.536  67.583  0.00  0.00    +0.000 C 
ATOM     23  NZ  LYS F   3     -17.094  11.226  68.536  0.00  0.00    +0.000 N 
ATOM     24  HZ1 LYS F   3     -17.079  10.240  68.760  0.00  0.00    +0.000 HD
ATOM     25  HZ2 LYS F   3     -17.264  11.700  69.417  0.00  0.00    +0.000 HD
ATOM     26  HZ3 LYS F   3     -16.194  11.510  68.172  0.00  0.00    +0.000 HD
ATOM     27  N   VAL F   4     -19.467  16.272  63.986  0.00  0.00    +0.000 N 
ATOM     28  H   VAL F   4     -20.368  16.211  64.433  0.00  0.00    +0.000 HD
ATOM     29  CA  VAL F   4     -18.888  17.594  63.764  0.00  0.00    +0.000 C 
ATOM     30  C   VAL F   4     -18.819  18.309  65.091  0.00  0.00    +0.000 C 
ATOM     31  O   VAL F   4     -19.858  18.550  65.688  0.00  0.00    +0.000 OA
ATOM     32  CB  VAL F   4     -19.670  18.410  62.694  0.00  0.00    +0.000 C 
ATOM     33  CG1 VAL F   4     -19.054  19.787  62.480  0.00  0.00    +0.000 C 
ATOM     34  CG2 VAL F   4     -19.734  17.669  61.373  0.00  0.00    +0.000 C 
ATOM     35  N   NME F   5     -17.612  18.621  65.581  0.00  0.00    +0.000 N 
ATOM     36  H   NME F   5     -16.783  18.336  65.067  0.00  0.00    +0.000 HD
ATOM     37  C   NME F   5     -17.484  19.282  66.871  0.00  0.00    +0.000 C 
TER 
REMARK  Name = /home/xianyang/aimnet2_score_pipelines/work/L1234-fixed-receptor-eint-20260921/L3/P28347/prepared.pdb
REMARK                            x       y       z     vdW  Elec       q    Type
REMARK                         _______ _______ _______ _____ _____    ______ ____
ATOM      1  CH3 ACE G   1     -17.148  12.574  73.125  0.00  0.00    +0.000 C 
ATOM      2  C   ACE G   1     -17.815  11.251  72.860  0.00  0.00    +0.000 C 
ATOM      3  O   ACE G   1     -17.143  10.304  72.484  0.00  0.00    +0.000 OA
ATOM      4  N   PRO G   2     -19.138  11.160  73.029  0.00  0.00    +0.000 N 
ATOM      5  CA  PRO G   2     -19.823   9.882  72.779  0.00  0.00    +0.000 C 
ATOM      6  C   PRO G   2     -19.564   9.299  71.401  0.00  0.00    +0.000 C 
ATOM      7  O   PRO G   2     -19.550  10.029  70.408  0.00  0.00    +0.000 OA
ATOM      8  CB  PRO G   2     -21.303  10.240  72.919  0.00  0.00    +0.000 C 
ATOM      9  CG  PRO G   2     -21.323  11.427  73.793  0.00  0.00    +0.000 C 
ATOM     10  CD  PRO G   2     -20.075  12.200  73.489  0.00  0.00    +0.000 C 
ATOM     11  N   MET G   3     -19.330   7.990  71.348  0.00  0.00    +0.000 N 
ATOM     12  H   MET G   3     -19.333   7.444  72.207  0.00  0.00    +0.000 HD
ATOM     13  CA  MET G   3     -19.173   7.303  70.079  0.00  0.00    +0.000 C 
ATOM     14  C   MET G   3     -20.581   7.178  69.489  0.00  0.00    +0.000 C 
ATOM     15  O   MET G   3     -21.562   7.029  70.235  0.00  0.00    +0.000 OA
ATOM     16  CB  MET G   3     -18.602   5.893  70.283  0.00  0.00    +0.000 C 
ATOM     17  CG  MET G   3     -17.107   5.811  70.188  0.00  0.00    +0.000 C 
ATOM     18  SD  MET G   3     -16.573   4.085  70.078  0.00  0.00    +0.000 S 
ATOM     19  CE  MET G   3     -14.952   4.206  70.867  0.00  0.00    +0.000 C 
ATOM     20  N   CYS G   4     -20.685   7.221  68.160  0.00  0.00    +0.000 N 
ATOM     21  H   CYS G   4     -19.857   7.214  67.594  0.00  0.00    +0.000 HD
ATOM     22  CA  CYS G   4     -21.982   7.080  67.508  0.00  0.00    +0.000 C 
ATOM     23  C   CYS G   4     -22.474   5.631  67.577  0.00  0.00    +0.000 C 
ATOM     24  O   CYS G   4     -21.668   4.711  67.727  0.00  0.00    +0.000 OA
ATOM     25  CB  CYS G   4     -21.927   7.596  66.070  0.00  0.00    +0.000 C 
ATOM     26  SG  CYS G   4     -20.534   6.955  65.095  0.00  0.00    +0.000 S 
ATOM     27  HG  CYS G   4     -19.661   7.926  65.376  0.00  0.00    +0.000 HD
ATOM     28  N   GLU G   5     -23.776   5.433  67.427  0.00  0.00    +0.000 N 
ATOM     29  H   GLU G   5     -24.412   6.212  67.489  0.00  0.00    +0.000 HD
ATOM     30  CA  GLU G   5     -24.339   4.094  67.475  0.00  0.00    +0.000 C 
ATOM     31  C   GLU G   5     -23.721   3.184  66.414  0.00  0.00    +0.000 C 
ATOM     32  O   GLU G   5     -23.565   1.987  66.639  0.00  0.00    +0.000 OA
ATOM     33  CB  GLU G   5     -25.859   4.146  67.330  0.00  0.00    +0.000 C 
ATOM     34  CG  GLU G   5     -26.587   3.040  68.077  0.00  0.00    +0.000 C 
ATOM     35  CD  GLU G   5     -26.455   3.164  69.583  0.00  0.00    +0.000 C 
ATOM     36  OE1 GLU G   5     -25.908   4.180  70.059  0.00  0.00    +0.000 OA
ATOM     37  OE2 GLU G   5     -26.904   2.243  70.296  0.00  0.00    +0.000 OA
ATOM     38  N   TYR G   6     -23.372   3.744  65.259  0.00  0.00    +0.000 N 
ATOM     39  H   TYR G   6     -23.542   4.727  65.123  0.00  0.00    +0.000 HD
ATOM     40  CA  TYR G   6     -22.755   2.950  64.195  0.00  0.00    +0.000 C 
ATOM     41  C   TYR G   6     -21.441   2.367  64.717  0.00  0.00    +0.000 C 
ATOM     42  O   TYR G   6     -21.227   1.164  64.601  0.00  0.00    +0.000 OA
ATOM     43  CB  TYR G   6     -22.502   3.800  62.931  0.00  0.00    +0.000 C 
ATOM     44  CG  TYR G   6     -22.051   2.995  61.726  0.00  0.00    +0.000 A 
ATOM     45  CD1 TYR G   6     -20.715   2.666  61.542  0.00  0.00    +0.000 A 
ATOM     46  CD2 TYR G   6     -22.954   2.611  60.741  0.00  0.00    +0.000 A 
ATOM     47  CE1 TYR G   6     -20.297   1.926  60.441  0.00  0.00    +0.000 A 
ATOM     48  CE2 TYR G   6     -22.544   1.883  59.629  0.00  0.00    +0.000 A 
ATOM     49  CZ  TYR G   6     -21.212   1.546  59.481  0.00  0.00    +0.000 A 
ATOM     50  OH  TYR G   6     -20.797   0.820  58.392  0.00  0.00    +0.000 OA
ATOM     51  HH  TYR G   6     -19.857   0.644  58.419  0.00  0.00    +0.000 HD
ATOM     52  N   MET G   7     -20.597   3.205  65.343  0.00  0.00    +0.000 N 
ATOM     53  H   MET G   7     -20.883   4.158  65.511  0.00  0.00    +0.000 HD
ATOM     54  CA  MET G   7     -19.324   2.742  65.882  0.00  0.00    +0.000 C 
ATOM     55  C   MET G   7     -19.482   1.745  67.014  0.00  0.00    +0.000 C 
ATOM     56  O   MET G   7     -18.738   0.766  67.043  0.00  0.00    +0.000 OA
ATOM     57  CB  MET G   7     -18.406   3.904  66.306  0.00  0.00    +0.000 C 
ATOM     58  CG  MET G   7     -17.605   4.513  65.167  0.00  0.00    +0.000 C 
ATOM     59  SD  MET G   7     -16.788   3.353  64.027  0.00  0.00    +0.000 S 
ATOM     60  CE  MET G   7     -15.821   2.382  65.155  0.00  0.00    +0.000 C 
ATOM     61  N   ILE G   8     -20.460   1.968  67.925  0.00  0.00    +0.000 N 
ATOM     62  H   ILE G   8     -21.025   2.809  67.842  0.00  0.00    +0.000 HD
ATOM     63  CA  ILE G   8     -20.703   1.062  69.048  0.00  0.00    +0.000 C 
ATOM     64  C   ILE G   8     -21.098  -0.320  68.552  0.00  0.00    +0.000 C 
ATOM     65  O   ILE G   8     -20.481  -1.313  68.936  0.00  0.00    +0.000 OA
ATOM     66  CB  ILE G   8     -21.734   1.638  70.053  0.00  0.00    +0.000 C 
ATOM     67  CG1 ILE G   8     -21.245   2.968  70.666  0.00  0.00    +0.000 C 
ATOM     68  CG2 ILE G   8     -22.045   0.619  71.149  0.00  0.00    +0.000 C 
ATOM     69  CD1 ILE G   8     -22.260   3.691  71.443  0.00  0.00    +0.000 C 
ATOM     70  N   ASN G   9     -22.086  -0.378  67.644  0.00  0.00    +0.000 N 
ATOM     71  H   ASN G   9     -22.554   0.485  67.378  0.00  0.00    +0.000 HD
ATOM     72  CA  ASN G   9     -22.555  -1.637  67.059  0.00  0.00    +0.000 C 
ATOM     73  C   ASN G   9     -21.485  -2.301  66.194  0.00  0.00    +0.000 C 
ATOM     74  O   ASN G   9     -21.414  -3.522  66.166  0.00  0.00    +0.000 OA
ATOM     75  CB  ASN G   9     -23.864  -1.436  66.293  0.00  0.00    +0.000 C 
ATOM     76  CG  ASN G   9     -25.015  -1.054  67.198  0.00  0.00    +0.000 C 
ATOM     77  OD1 ASN G   9     -25.036  -1.365  68.394  0.00  0.00    +0.000 OA
ATOM     78  ND2 ASN G   9     -25.993  -0.349  66.651  0.00  0.00    +0.000 N 
ATOM     79 HD21 ASN G   9     -25.905   0.007  65.721  0.00  0.00    +0.000 HD
ATOM     80 HD22 ASN G   9     -26.657   0.027  67.311  0.00  0.00    +0.000 HD
ATOM     81  N   PHE G  10     -20.625  -1.507  65.538  0.00  0.00    +0.000 N 
ATOM     82  H   PHE G  10     -20.777  -0.503  65.551  0.00  0.00    +0.000 HD
ATOM     83  CA  PHE G  10     -19.523  -2.025  64.726  0.00  0.00    +0.000 C 
ATOM     84  C   PHE G  10     -18.519  -2.794  65.594  0.00  0.00    +0.000 C 
ATOM     85  O   PHE G  10     -18.117  -3.891  65.220  0.00  0.00    +0.000 OA
ATOM     86  CB  PHE G  10     -18.808  -0.885  63.979  0.00  0.00    +0.000 C 
ATOM     87  CG  PHE G  10     -17.647  -1.328  63.117  0.00  0.00    +0.000 A 
ATOM     88  CD1 PHE G  10     -17.824  -2.270  62.115  0.00  0.00    +0.000 A 
ATOM     89  CD2 PHE G  10     -16.390  -0.775  63.281  0.00  0.00    +0.000 A 
ATOM     90  CE1 PHE G  10     -16.759  -2.681  61.322  0.00  0.00    +0.000 A 
ATOM     91  CE2 PHE G  10     -15.328  -1.175  62.470  0.00  0.00    +0.000 A 
ATOM     92  CZ  PHE G  10     -15.522  -2.126  61.496  0.00  0.00    +0.000 A 
ATOM     93  N   ILE G  11     -18.126  -2.224  66.753  0.00  0.00    +0.000 N 
ATOM     94  H   ILE G  11     -18.472  -1.293  66.971  0.00  0.00    +0.000 HD
ATOM     95  CA  ILE G  11     -17.190  -2.857  67.685  0.00  0.00    +0.000 C 
ATOM     96  C   ILE G  11     -17.805  -4.149  68.214  0.00  0.00    +0.000 C 
ATOM     97  O   ILE G  11     -17.144  -5.188  68.197  0.00  0.00    +0.000 OA
ATOM     98  CB  ILE G  11     -16.789  -1.873  68.816  0.00  0.00    +0.000 C 
ATOM     99  CG1 ILE G  11     -15.935  -0.730  68.262  0.00  0.00    +0.000 C 
ATOM    100  CG2 ILE G  11     -16.063  -2.585  69.938  0.00  0.00    +0.000 C 
ATOM    101  CD1 ILE G  11     -15.883   0.444  69.106  0.00  0.00    +0.000 C 
ATOM    102  N   HIS G  12     -19.101  -4.099  68.592  0.00  0.00    +0.000 N 
ATOM    103  H   HIS G  12     -19.560  -3.195  68.577  0.00  0.00    +0.000 HD
ATOM    104  CA  HIS G  12     -19.866  -5.248  69.089  0.00  0.00    +0.000 C 
ATOM    105  C   HIS G  12     -19.894  -6.378  68.074  0.00  0.00    +0.000 C 
ATOM    106  O   HIS G  12     -19.744  -7.543  68.445  0.00  0.00    +0.000 OA
ATOM    107  CB  HIS G  12     -21.311  -4.844  69.411  0.00  0.00    +0.000 C 
ATOM    108  CG  HIS G  12     -21.495  -4.269  70.780  0.00  0.00    +0.000 A 
ATOM    109  ND1 HIS G  12     -21.590  -2.900  70.983  0.00  0.00    +0.000 N 
ATOM    110  HD1 HIS G  12     -21.460  -2.171  70.290  0.00  0.00    +0.000 HD
ATOM    111  CD2 HIS G  12     -21.613  -4.897  71.974  0.00  0.00    +0.000 A 
ATOM    112  CE1 HIS G  12     -21.757  -2.741  72.285  0.00  0.00    +0.000 A 
ATOM    113  NE2 HIS G  12     -21.773  -3.913  72.924  0.00  0.00    +0.000 NA
ATOM    114  N   LYS G  13     -20.099  -6.037  66.794  0.00  0.00    +0.000 N 
ATOM    115  H   LYS G  13     -20.269  -5.058  66.583  0.00  0.00    +0.000 HD
ATOM    116  CA  LYS G  13     -20.163  -7.014  65.703  0.00  0.00    +0.000 C 
ATOM    117  C   LYS G  13     -18.780  -7.549  65.331  0.00  0.00    +0.000 C 
ATOM    118  O   LYS G  13     -18.674  -8.695  64.901  0.00  0.00    +0.000 OA
ATOM    119  CB  LYS G  13     -20.860  -6.428  64.460  0.00  0.00    +0.000 C 
ATOM    120  CG  LYS G  13     -22.360  -6.204  64.607  0.00  0.00    +0.000 C 
ATOM    121  CD  LYS G  13     -22.990  -5.732  63.304  0.00  0.00    +0.000 C 
ATOM    122  CE  LYS G  13     -23.477  -6.878  62.438  0.00  0.00    +0.000 C 
ATOM    123  NZ  LYS G  13     -24.662  -7.565  63.030  0.00  0.00    +0.000 N 
ATOM    124  HZ1 LYS G  13     -25.438  -6.921  63.119  0.00  0.00    +0.000 HD
ATOM    125  HZ2 LYS G  13     -24.438  -7.924  63.950  0.00  0.00    +0.000 HD
ATOM    126  HZ3 LYS G  13     -24.950  -8.342  62.447  0.00  0.00    +0.000 HD
ATOM    127  N   LEU G  14     -17.725  -6.727  65.488  0.00  0.00    +0.000 N 
ATOM    128  H   LEU G  14     -17.897  -5.764  65.753  0.00  0.00    +0.000 HD
ATOM    129  CA  LEU G  14     -16.358  -7.135  65.190  0.00  0.00    +0.000 C 
ATOM    130  C   LEU G  14     -15.922  -8.146  66.221  0.00  0.00    +0.000 C 
ATOM    131  O   LEU G  14     -15.427  -9.205  65.850  0.00  0.00    +0.000 OA
ATOM    132  CB  LEU G  14     -15.393  -5.941  65.215  0.00  0.00    +0.000 C 
ATOM    133  CG  LEU G  14     -15.081  -5.250  63.903  0.00  0.00    +0.000 C 
ATOM    134  CD1 LEU G  14     -14.002  -4.221  64.119  0.00  0.00    +0.000 C 
ATOM    135  CD2 LEU G  14     -14.633  -6.243  62.829  0.00  0.00    +0.000 C 
ATOM    136  N   LYS G  15     -16.134  -7.839  67.520  0.00  0.00    +0.000 N 
ATOM    137  H   LYS G  15     -16.555  -6.938  67.730  0.00  0.00    +0.000 HD
ATOM    138  CA  LYS G  15     -15.779  -8.738  68.622  0.00  0.00    +0.000 C 
ATOM    139  C   LYS G  15     -16.536 -10.079  68.563  0.00  0.00    +0.000 C 
ATOM    140  O   LYS G  15     -16.041 -11.083  69.074  0.00  0.00    +0.000 OA
ATOM    141  CB  LYS G  15     -16.012  -8.054  69.971  0.00  0.00    +0.000 C 
ATOM    142  CG  LYS G  15     -14.834  -7.228  70.449  0.00  0.00    +0.000 C 
ATOM    143  CD  LYS G  15     -14.832  -7.079  71.978  0.00  0.00    +0.000 C 
ATOM    144  CE  LYS G  15     -14.665  -8.403  72.685  0.00  0.00    +0.000 C 
ATOM    145  NZ  LYS G  15     -13.449  -9.129  72.231  0.00  0.00    +0.000 N 
ATOM    146  HZ1 LYS G  15     -12.637  -8.514  72.289  0.00  0.00    +0.000 HD
ATOM    147  HZ2 LYS G  15     -13.273  -9.950  72.794  0.00  0.00    +0.000 HD
ATOM    148  HZ3 LYS G  15     -13.553  -9.415  71.266  0.00  0.00    +0.000 HD
ATOM    149  N   NME G  16     -17.718 -10.090  67.919  0.00  0.00    +0.000 N 
ATOM    150  H   NME G  16     -18.033  -9.216  67.527  0.00  0.00    +0.000 HD
ATOM    151  C   NME G  16     -18.582 -11.255  67.752  0.00  0.00    +0.000 C 
TER 
REMARK  Name = /home/xianyang/aimnet2_score_pipelines/work/L1234-fixed-receptor-eint-20260921/L3/P28347/prepared.pdb
REMARK                            x       y       z     vdW  Elec       q    Type
REMARK                         _______ _______ _______ _____ _____    ______ ____
ATOM      1  CH3 ACE H   1     -11.010  -8.582  56.354  0.00  0.00    +0.000 C 
ATOM      2  C   ACE H   1     -12.159  -7.575  56.312  0.00  0.00    +0.000 C 
ATOM      3  O   ACE H   1     -12.325  -6.883  55.314  0.00  0.00    +0.000 OA
ATOM      4  N   VAL H   2     -12.954  -7.504  57.373  0.00  0.00    +0.000 N 
ATOM      5  H   VAL H   2     -12.806  -8.148  58.134  0.00  0.00    +0.000 HD
ATOM      6  CA  VAL H   2     -14.051  -6.552  57.444  0.00  0.00    +0.000 C 
ATOM      7  C   VAL H   2     -13.470  -5.129  57.532  0.00  0.00    +0.000 C 
ATOM      8  O   VAL H   2     -13.865  -4.260  56.756  0.00  0.00    +0.000 OA
ATOM      9  CB  VAL H   2     -14.972  -6.865  58.642  0.00  0.00    +0.000 C 
ATOM     10  CG1 VAL H   2     -16.010  -5.765  58.839  0.00  0.00    +0.000 C 
ATOM     11  CG2 VAL H   2     -15.634  -8.226  58.479  0.00  0.00    +0.000 C 
ATOM     12  N   LEU H   3     -12.480  -4.914  58.426  0.00  0.00    +0.000 N 
ATOM     13  H   LEU H   3     -12.177  -5.684  58.998  0.00  0.00    +0.000 HD
ATOM     14  CA  LEU H   3     -11.806  -3.619  58.601  0.00  0.00    +0.000 C 
ATOM     15  C   LEU H   3     -11.111  -3.081  57.339  0.00  0.00    +0.000 C 
ATOM     16  O   LEU H   3     -10.743  -1.903  57.294  0.00  0.00    +0.000 OA
ATOM     17  CB  LEU H   3     -10.796  -3.708  59.742  0.00  0.00    +0.000 C 
ATOM     18  CG  LEU H   3     -11.375  -3.624  61.133  0.00  0.00    +0.000 C 
ATOM     19  CD1 LEU H   3     -10.320  -3.952  62.170  0.00  0.00    +0.000 C 
ATOM     20  CD2 LEU H   3     -11.976  -2.266  61.376  0.00  0.00    +0.000 C 
ATOM     21  N   GLU H   4     -10.939  -3.943  56.327  0.00  0.00    +0.000 N 
ATOM     22  H   GLU H   4     -11.288  -4.881  56.439  0.00  0.00    +0.000 HD
ATOM     23  CA  GLU H   4     -10.352  -3.629  55.039  0.00  0.00    +0.000 C 
ATOM     24  C   GLU H   4     -11.218  -2.591  54.285  0.00  0.00    +0.000 C 
ATOM     25  O   GLU H   4     -10.697  -1.794  53.496  0.00  0.00    +0.000 OA
ATOM     26  CB  GLU H   4     -10.252  -4.936  54.234  0.00  0.00    +0.000 C 
ATOM     27  CG  GLU H   4      -9.838  -4.786  52.795  0.00  0.00    +0.000 C 
ATOM     28  CD  GLU H   4      -8.341  -4.760  52.595  0.00  0.00    +0.000 C 
ATOM     29  OE1 GLU H   4      -7.628  -5.542  53.265  0.00  0.00    +0.000 OA
ATOM     30  OE2 GLU H   4      -7.882  -3.975  51.733  0.00  0.00    +0.000 OA
ATOM     31  N   ASN H   5     -12.541  -2.617  54.505  0.00  0.00    +0.000 N 
ATOM     32  H   ASN H   5     -12.909  -3.278  55.179  0.00  0.00    +0.000 HD
ATOM     33  CA  ASN H   5     -13.444  -1.663  53.871  0.00  0.00    +0.000 C 
ATOM     34  C   ASN H   5     -13.968  -0.616  54.865  0.00  0.00    +0.000 C 
ATOM     35  O   ASN H   5     -14.999   0.006  54.623  0.00  0.00    +0.000 OA
ATOM     36  CB  ASN H   5     -14.590  -2.403  53.209  0.00  0.00    +0.000 C 
ATOM     37  CG  ASN H   5     -14.103  -3.374  52.172  0.00  0.00    +0.000 C 
ATOM     38  OD1 ASN H   5     -13.906  -3.016  51.002  0.00  0.00    +0.000 OA
ATOM     39  ND2 ASN H   5     -13.874  -4.614  52.590  0.00  0.00    +0.000 N 
ATOM     40 HD21 ASN H   5     -13.917  -4.831  53.568  0.00  0.00    +0.000 HD
ATOM     41 HD22 ASN H   5     -13.435  -5.225  51.930  0.00  0.00    +0.000 HD
ATOM     42  N   PHE H   6     -13.252  -0.419  55.977  0.00  0.00    +0.000 N 
ATOM     43  H   PHE H   6     -12.373  -0.915  56.083  0.00  0.00    +0.000 HD
ATOM     44  CA  PHE H   6     -13.608   0.510  57.021  0.00  0.00    +0.000 C 
ATOM     45  C   PHE H   6     -12.487   1.514  57.214  0.00  0.00    +0.000 C 
ATOM     46  O   PHE H   6     -11.359   1.145  57.564  0.00  0.00    +0.000 OA
ATOM     47  CB  PHE H   6     -13.891  -0.243  58.332  0.00  0.00    +0.000 C 
ATOM     48  CG  PHE H   6     -14.189   0.705  59.464  0.00  0.00    +0.000 A 
ATOM     49  CD1 PHE H   6     -15.436   1.283  59.589  0.00  0.00    +0.000 A 
ATOM     50  CD2 PHE H   6     -13.197   1.073  60.362  0.00  0.00    +0.000 A 
ATOM     51  CE1 PHE H   6     -15.694   2.176  60.608  0.00  0.00    +0.000 A 
ATOM     52  CE2 PHE H   6     -13.455   1.990  61.355  0.00  0.00    +0.000 A 
ATOM     53  CZ  PHE H   6     -14.704   2.523  61.484  0.00  0.00    +0.000 A 
ATOM     54  N   THR H   7     -12.802   2.784  56.988  0.00  0.00    +0.000 N 
ATOM     55  H   THR H   7     -13.755   3.013  56.720  0.00  0.00    +0.000 HD
ATOM     56  CA  THR H   7     -11.864   3.876  57.197  0.00  0.00    +0.000 C 
ATOM     57  C   THR H   7     -12.501   5.021  58.002  0.00  0.00    +0.000 C 
ATOM     58  O   THR H   7     -13.727   5.084  58.133  0.00  0.00    +0.000 OA
ATOM     59  CB  THR H   7     -11.303   4.374  55.864  0.00  0.00    +0.000 C 
ATOM     60  OG1 THR H   7     -12.363   4.732  54.966  0.00  0.00    +0.000 OA
ATOM     61  HG1 THR H   7     -12.832   5.473  55.345  0.00  0.00    +0.000 HD
ATOM     62  CG2 THR H   7     -10.329   3.410  55.238  0.00  0.00    +0.000 C 
ATOM     63  N   ILE H   8     -11.681   5.911  58.565  0.00  0.00    +0.000 N 
ATOM     64  H   ILE H   8     -10.676   5.806  58.456  0.00  0.00    +0.000 HD
ATOM     65  CA  ILE H   8     -12.194   7.084  59.267  0.00  0.00    +0.000 C 
ATOM     66  C   ILE H   8     -11.409   8.293  58.752  0.00  0.00    +0.000 C 
ATOM     67  O   ILE H   8     -10.189   8.211  58.659  0.00  0.00    +0.000 OA
ATOM     68  CB  ILE H   8     -12.106   6.942  60.811  0.00  0.00    +0.000 C 
ATOM     69  CG1 ILE H   8     -12.936   5.737  61.312  0.00  0.00    +0.000 C 
ATOM     70  CG2 ILE H   8     -12.534   8.241  61.497  0.00  0.00    +0.000 C 
ATOM     71  CD1 ILE H   8     -12.933   5.503  62.825  0.00  0.00    +0.000 C 
ATOM     72  N   LEU H   9     -12.082   9.383  58.358  0.00  0.00    +0.000 N 
ATOM     73  H   LEU H   9     -13.094   9.400  58.441  0.00  0.00    +0.000 HD
ATOM     74  CA  LEU H   9     -11.374  10.573  57.909  0.00  0.00    +0.000 C 
ATOM     75  C   LEU H   9     -11.612  11.685  58.906  0.00  0.00    +0.000 C 
ATOM     76  O   LEU H   9     -12.751  12.064  59.150  0.00  0.00    +0.000 OA
ATOM     77  CB  LEU H   9     -11.789  11.005  56.515  0.00  0.00    +0.000 C 
ATOM     78  CG  LEU H   9     -11.062  12.238  55.985  0.00  0.00    +0.000 C 
ATOM     79  CD1 LEU H   9      -9.618  11.965  55.766  0.00  0.00    +0.000 C 
ATOM     80  CD2 LEU H   9     -11.626  12.654  54.672  0.00  0.00    +0.000 C 
ATOM     81  N   LEU H  10     -10.543  12.187  59.504  0.00  0.00    +0.000 N 
ATOM     82  H   LEU H  10      -9.625  11.802  59.300  0.00  0.00    +0.000 HD
ATOM     83  CA  LEU H  10     -10.633  13.251  60.470  0.00  0.00    +0.000 C 
ATOM     84  C   LEU H  10     -10.094  14.555  59.903  0.00  0.00    +0.000 C 
ATOM     85  O   LEU H  10      -8.922  14.627  59.587  0.00  0.00    +0.000 OA
ATOM     86  CB  LEU H  10      -9.836  12.848  61.689  0.00  0.00    +0.000 C 
ATOM     87  CG  LEU H  10      -9.931  13.839  62.813  0.00  0.00    +0.000 C 
ATOM     88  CD1 LEU H  10     -10.804  13.302  63.911  0.00  0.00    +0.000 C 
ATOM     89  CD2 LEU H  10      -8.563  14.263  63.278  0.00  0.00    +0.000 C 
ATOM     90  N   VAL H  11     -10.935  15.588  59.762  0.00  0.00    +0.000 N 
ATOM     91  H   VAL H  11     -11.892  15.485  60.089  0.00  0.00    +0.000 HD
ATOM     92  CA  VAL H  11     -10.483  16.893  59.257  0.00  0.00    +0.000 C 
ATOM     93  C   VAL H  11     -10.702  18.009  60.302  0.00  0.00    +0.000 C 
ATOM     94  O   VAL H  11     -11.820  18.212  60.749  0.00  0.00    +0.000 OA
ATOM     95  CB  VAL H  11     -11.119  17.256  57.891  0.00  0.00    +0.000 C 
ATOM     96  CG1 VAL H  11     -10.563  18.585  57.365  0.00  0.00    +0.000 C 
ATOM     97  CG2 VAL H  11     -10.912  16.140  56.862  0.00  0.00    +0.000 C 
ATOM     98  N   NME H  12      -9.642  18.691  60.724  0.00  0.00    +0.000 N 
ATOM     99  H   NME H  12      -8.732  18.440  60.354  0.00  0.00    +0.000 HD
ATOM    100  C   NME H  12      -9.721  19.782  61.686  0.00  0.00    +0.000 C 
TER 
REMARK  Name = /home/xianyang/aimnet2_score_pipelines/work/L1234-fixed-receptor-eint-20260921/L3/P28347/prepared.pdb
REMARK                            x       y       z     vdW  Elec       q    Type
REMARK                         _______ _______ _______ _____ _____    ______ ____
ATOM      1  CH3 ACE I   1      -4.994  18.971  60.149  0.00  0.00    +0.000 C 
ATOM      2  C   ACE I   1      -5.950  17.951  59.522  0.00  0.00    +0.000 C 
ATOM      3  O   ACE I   1      -7.145  18.013  59.763  0.00  0.00    +0.000 OA
ATOM      4  N   CYS I   2      -5.430  16.979  58.785  0.00  0.00    +0.000 N 
ATOM      5  H   CYS I   2      -4.431  16.933  58.657  0.00  0.00    +0.000 HD
ATOM      6  CA  CYS I   2      -6.244  15.914  58.219  0.00  0.00    +0.000 C 
ATOM      7  C   CYS I   2      -5.590  14.574  58.472  0.00  0.00    +0.000 C 
ATOM      8  O   CYS I   2      -4.440  14.368  58.099  0.00  0.00    +0.000 OA
ATOM      9  CB  CYS I   2      -6.506  16.135  56.734  0.00  0.00    +0.000 C 
ATOM     10  SG  CYS I   2      -7.372  14.764  55.906  0.00  0.00    +0.000 S 
ATOM     11  HG  CYS I   2      -6.329  13.924  55.873  0.00  0.00    +0.000 HD
ATOM     12  N   MET I   3      -6.329  13.650  59.076  0.00  0.00    +0.000 N 
ATOM     13  H   MET I   3      -7.288  13.873  59.329  0.00  0.00    +0.000 HD
ATOM     14  CA  MET I   3      -5.831  12.314  59.331  0.00  0.00    +0.000 C 
ATOM     15  C   MET I   3      -6.736  11.245  58.737  0.00  0.00    +0.000 C 
ATOM     16  O   MET I   3      -7.894  11.126  59.114  0.00  0.00    +0.000 OA
ATOM     17  CB  MET I   3      -5.660  12.096  60.813  0.00  0.00    +0.000 C 
ATOM     18  CG  MET I   3      -4.795  13.139  61.428  0.00  0.00    +0.000 C 
ATOM     19  SD  MET I   3      -5.046  13.195  63.181  0.00  0.00    +0.000 S 
ATOM     20  CE  MET I   3      -4.519  11.536  63.582  0.00  0.00    +0.000 C 
ATOM     21  N   ALA I   4      -6.207  10.476  57.797  0.00  0.00    +0.000 N 
ATOM     22  H   ALA I   4      -5.238  10.600  57.551  0.00  0.00    +0.000 HD
ATOM     23  CA  ALA I   4      -6.932   9.386  57.155  0.00  0.00    +0.000 C 
ATOM     24  C   ALA I   4      -6.563   8.156  57.955  0.00  0.00    +0.000 C 
ATOM     25  O   ALA I   4      -5.387   7.850  58.096  0.00  0.00    +0.000 OA
ATOM     26  CB  ALA I   4      -6.478   9.243  55.713  0.00  0.00    +0.000 C 
ATOM     27  N   CYS I   5      -7.544   7.490  58.532  0.00  0.00    +0.000 N 
ATOM     28  H   CYS I   5      -8.492   7.835  58.447  0.00  0.00    +0.000 HD
ATOM     29  CA  CYS I   5      -7.303   6.383  59.435  0.00  0.00    +0.000 C 
ATOM     30  C   CYS I   5      -7.677   5.056  58.847  0.00  0.00    +0.000 C 
ATOM     31  O   CYS I   5      -8.788   4.879  58.362  0.00  0.00    +0.000 OA
ATOM     32  CB  CYS I   5      -8.014   6.634  60.763  0.00  0.00    +0.000 C 
ATOM     33  SG  CYS I   5      -7.675   8.261  61.495  0.00  0.00    +0.000 S 
ATOM     34  HG  CYS I   5      -6.344   8.134  61.522  0.00  0.00    +0.000 HD
ATOM     35  N   VAL I   6      -6.753   4.114  58.914  0.00  0.00    +0.000 N 
ATOM     36  H   VAL I   6      -5.866   4.351  59.352  0.00  0.00    +0.000 HD
ATOM     37  CA  VAL I   6      -6.900   2.748  58.410  0.00  0.00    +0.000 C 
ATOM     38  C   VAL I   6      -6.732   1.800  59.621  0.00  0.00    +0.000 C 
ATOM     39  O   VAL I   6      -5.926   2.090  60.506  0.00  0.00    +0.000 OA
ATOM     40  CB  VAL I   6      -5.837   2.529  57.292  0.00  0.00    +0.000 C 
ATOM     41  CG1 VAL I   6      -5.611   1.059  56.989  0.00  0.00    +0.000 C 
ATOM     42  CG2 VAL I   6      -6.205   3.295  56.031  0.00  0.00    +0.000 C 
ATOM     43  N   PHE I   7      -7.511   0.696  59.689  0.00  0.00    +0.000 N 
ATOM     44  H   PHE I   7      -8.165   0.481  58.947  0.00  0.00    +0.000 HD
ATOM     45  CA  PHE I   7      -7.454  -0.203  60.857  0.00  0.00    +0.000 C 
ATOM     46  C   PHE I   7      -7.233  -1.684  60.578  0.00  0.00    +0.000 C 
ATOM     47  O   PHE I   7      -7.763  -2.234  59.622  0.00  0.00    +0.000 OA
ATOM     48  CB  PHE I   7      -8.763  -0.104  61.655  0.00  0.00    +0.000 C 
ATOM     49  CG  PHE I   7      -9.119   1.288  62.112  0.00  0.00    +0.000 A 
ATOM     50  CD1 PHE I   7      -9.783   2.166  61.268  0.00  0.00    +0.000 A 
ATOM     51  CD2 PHE I   7      -8.815   1.711  63.395  0.00  0.00    +0.000 A 
ATOM     52  CE1 PHE I   7     -10.084   3.453  61.684  0.00  0.00    +0.000 A 
ATOM     53  CE2 PHE I   7      -9.131   2.993  63.810  0.00  0.00    +0.000 A 
ATOM     54  CZ  PHE I   7      -9.753   3.858  62.952  0.00  0.00    +0.000 A 
ATOM     55  N   GLU I   8      -6.511  -2.327  61.481  0.00  0.00    +0.000 N 
ATOM     56  H   GLU I   8      -6.119  -1.765  62.233  0.00  0.00    +0.000 HD
ATOM     57  CA  GLU I   8      -6.286  -3.765  61.624  0.00  0.00    +0.000 C 
ATOM     58  C   GLU I   8      -6.523  -4.075  63.136  0.00  0.00    +0.000 C 
ATOM     59  O   GLU I   8      -6.553  -3.177  63.984  0.00  0.00    +0.000 OA
ATOM     60  CB  GLU I   8      -4.857  -4.180  61.226  0.00  0.00    +0.000 C 
ATOM     61  CG  GLU I   8      -4.666  -4.507  59.751  0.00  0.00    +0.000 C 
ATOM     62  CD  GLU I   8      -3.639  -5.571  59.386  0.00  0.00    +0.000 C 
ATOM     63  OE1 GLU I   8      -4.053  -6.504  58.668  0.00  0.00    +0.000 OA
ATOM     64  OE2 GLU I   8      -2.451  -5.498  59.787  0.00  0.00    +0.000 OA
ATOM     65  N   NME I   9      -6.701  -5.344  63.456  0.00  0.00    +0.000 N 
ATOM     66  H   NME I   9      -6.650  -6.038  62.725  0.00  0.00    +0.000 HD
ATOM     67  C   NME I   9      -6.895  -5.792  64.826  0.00  0.00    +0.000 C 
TER 
