REMARK  Name = /data/user_data/xianyang/t3-aimnet-affinity-balanced/L4/P37059/pocket.pdb
REMARK                            x       y       z     vdW  Elec       q    Type
REMARK                         _______ _______ _______ _____ _____    ______ ____
ATOM      1  N   LEU A   1      -2.413  11.715  10.452  0.00  0.00    +0.000 N 
ATOM      2  CA  LEU A   1      -1.451  11.141  11.384  0.00  0.00    +0.000 C 
ATOM      3  C   LEU A   1      -1.575  11.868  12.716  0.00  0.00    +0.000 C 
ATOM      4  O   LEU A   1      -1.481  13.091  12.772  0.00  0.00    +0.000 OA
ATOM      5  CB  LEU A   1      -0.027  11.264  10.843  0.00  0.00    +0.000 C 
ATOM      6  CG  LEU A   1       1.096  10.677  11.691  0.00  0.00    +0.000 C 
ATOM      7  CD2 LEU A   1       0.967   9.162  11.764  0.00  0.00    +0.000 C 
ATOM      8  CD1 LEU A   1       2.451  11.070  11.115  0.00  0.00    +0.000 C 
ATOM      9  H   LEU A   1      -2.342  11.238   9.553  0.00  0.00    +0.000 HD
ATOM     10  H   LEU A   1      -2.214  12.708  10.326  0.00  0.00    +0.000 HD
ATOM     11  H   LEU A   1      -3.356  11.602  10.824  0.00  0.00    +0.000 HD
TER 
REMARK  Name = /data/user_data/xianyang/t3-aimnet-affinity-balanced/L4/P37059/pocket.pdb
REMARK                            x       y       z     vdW  Elec       q    Type
REMARK                         _______ _______ _______ _____ _____    ______ ____
ATOM      1  N   SER B   1       0.308   1.705   4.990  0.00  0.00    +0.000 N 
ATOM      2  CA  SER B   1       1.598   2.174   5.467  0.00  0.00    +0.000 C 
ATOM      3  C   SER B   1       2.404   0.991   5.973  0.00  0.00    +0.000 C 
ATOM      4  O   SER B   1       1.840  -0.033   6.364  0.00  0.00    +0.000 OA
ATOM      5  CB  SER B   1       1.437   3.216   6.579  0.00  0.00    +0.000 C 
ATOM      6  OG  SER B   1       2.688   3.578   7.134  0.00  0.00    +0.000 OA
ATOM      7  N   MET B   2       3.710   1.151   5.951  0.00  0.00    +0.000 N 
ATOM      8  CA  MET B   2       4.563   0.187   6.623  0.00  0.00    +0.000 C 
ATOM      9  C   MET B   2       4.179   0.066   8.089  0.00  0.00    +0.000 C 
ATOM     10  O   MET B   2       4.191  -1.036   8.637  0.00  0.00    +0.000 OA
ATOM     11  CB  MET B   2       6.029   0.595   6.486  0.00  0.00    +0.000 C 
ATOM     12  CG  MET B   2       7.000  -0.348   7.162  0.00  0.00    +0.000 C 
ATOM     13  SD  MET B   2       8.667   0.345   7.286  0.00  0.00    +0.000 S 
ATOM     14  CE  MET B   2       8.400   1.602   8.551  0.00  0.00    +0.000 C 
ATOM     15  N   GLY B   3       3.830   1.190   8.708  0.00  0.00    +0.000 N 
ATOM     16  CA  GLY B   3       3.417   1.160  10.094  0.00  0.00    +0.000 C 
ATOM     17  C   GLY B   3       2.121   0.419  10.341  0.00  0.00    +0.000 C 
ATOM     18  O   GLY B   3       1.807   0.099  11.487  0.00  0.00    +0.000 OA
ATOM     19  N   GLY B   4       1.355   0.154   9.293  0.00  0.00    +0.000 N 
ATOM     20  CA  GLY B   4       0.168  -0.659   9.437  0.00  0.00    +0.000 C 
ATOM     21  C   GLY B   4       0.433  -2.149   9.358  0.00  0.00    +0.000 C 
ATOM     22  O   GLY B   4      -0.402  -2.948   9.789  0.00  0.00    +0.000 OA
ATOM     23  H   SER B   1       0.449   1.015   4.253  0.00  0.00    +0.000 HD
ATOM     24  H   SER B   1      -0.225   2.493   4.621  0.00  0.00    +0.000 HD
ATOM     25  H   SER B   1      -0.205   1.279   5.761  0.00  0.00    +0.000 HD
ATOM     26  H   SER B   1       3.108   2.795   7.522  0.00  0.00    +0.000 HD
ATOM     27  H   MET B   2       4.107   1.920   5.481  0.00  0.00    +0.000 HD
ATOM     28  H   GLY B   3       3.853   2.045   8.221  0.00  0.00    +0.000 HD
ATOM     29  H   GLY B   4       1.596   0.514   8.409  0.00  0.00    +0.000 HD
TER 
REMARK  Name = /data/user_data/xianyang/t3-aimnet-affinity-balanced/L4/P37059/pocket.pdb
REMARK                            x       y       z     vdW  Elec       q    Type
REMARK                         _______ _______ _______ _____ _____    ______ ____
ATOM      1  N   MET C   1       4.875  -0.642  15.482  0.00  0.00    +0.000 N 
ATOM      2  CA  MET C   1       5.840   0.365  15.877  0.00  0.00    +0.000 C 
ATOM      3  C   MET C   1       5.318   1.116  17.088  0.00  0.00    +0.000 C 
ATOM      4  O   MET C   1       4.137   1.470  17.146  0.00  0.00    +0.000 OA
ATOM      5  CB  MET C   1       6.126   1.345  14.742  0.00  0.00    +0.000 C 
ATOM      6  CG  MET C   1       6.800   0.721  13.535  0.00  0.00    +0.000 C 
ATOM      7  SD  MET C   1       7.025   1.900  12.185  0.00  0.00    +0.000 S 
ATOM      8  CE  MET C   1       7.897   3.213  13.041  0.00  0.00    +0.000 C 
ATOM      9  H   MET C   1       5.225  -1.147  14.668  0.00  0.00    +0.000 HD
ATOM     10  H   MET C   1       3.990  -0.192  15.248  0.00  0.00    +0.000 HD
ATOM     11  H   MET C   1       4.731  -1.295  16.252  0.00  0.00    +0.000 HD
TER 
REMARK  Name = /data/user_data/xianyang/t3-aimnet-affinity-balanced/L4/P37059/pocket.pdb
REMARK                            x       y       z     vdW  Elec       q    Type
REMARK                         _______ _______ _______ _____ _____    ______ ____
ATOM      1  N   LEU D   1       2.803   4.803  17.604  0.00  0.00    +0.000 N 
ATOM      2  CA  LEU D   1       1.904   4.942  16.462  0.00  0.00    +0.000 C 
ATOM      3  C   LEU D   1       0.647   4.107  16.647  0.00  0.00    +0.000 C 
ATOM      4  O   LEU D   1       0.168   3.458  15.711  0.00  0.00    +0.000 OA
ATOM      5  CB  LEU D   1       2.619   4.558  15.162  0.00  0.00    +0.000 C 
ATOM      6  CG  LEU D   1       3.763   5.467  14.723  0.00  0.00    +0.000 C 
ATOM      7  CD1 LEU D   1       4.462   4.891  13.498  0.00  0.00    +0.000 C 
ATOM      8  CD2 LEU D   1       3.243   6.869  14.433  0.00  0.00    +0.000 C 
ATOM      9  H   LEU D   1       3.635   5.373  17.453  0.00  0.00    +0.000 HD
ATOM     10  H   LEU D   1       3.074   3.825  17.706  0.00  0.00    +0.000 HD
ATOM     11  H   LEU D   1       2.327   5.114  18.451  0.00  0.00    +0.000 HD
TER 
REMARK  Name = /data/user_data/xianyang/t3-aimnet-affinity-balanced/L4/P37059/pocket.pdb
REMARK                            x       y       z     vdW  Elec       q    Type
REMARK                         _______ _______ _______ _____ _____    ______ ____
ATOM      1  N   TYR E   1      -2.544   5.790  14.531  0.00  0.00    +0.000 N 
ATOM      2  CA  TYR E   1      -2.283   5.759  13.096  0.00  0.00    +0.000 C 
ATOM      3  C   TYR E   1      -2.015   4.340  12.616  0.00  0.00    +0.000 C 
ATOM      4  O   TYR E   1      -2.574   3.902  11.604  0.00  0.00    +0.000 OA
ATOM      5  CB  TYR E   1      -1.100   6.669  12.765  0.00  0.00    +0.000 C 
ATOM      6  CG  TYR E   1      -0.758   6.701  11.296  0.00  0.00    +0.000 A 
ATOM      7  CD1 TYR E   1      -1.458   7.517  10.417  0.00  0.00    +0.000 A 
ATOM      8  CD2 TYR E   1       0.268   5.916  10.785  0.00  0.00    +0.000 A 
ATOM      9  CE1 TYR E   1      -1.149   7.552   9.065  0.00  0.00    +0.000 A 
ATOM     10  CE2 TYR E   1       0.588   5.945   9.431  0.00  0.00    +0.000 A 
ATOM     11  CZ  TYR E   1      -0.124   6.764   8.580  0.00  0.00    +0.000 A 
ATOM     12  OH  TYR E   1       0.187   6.796   7.241  0.00  0.00    +0.000 OA
ATOM     13  H   TYR E   1      -3.334   5.181  14.746  0.00  0.00    +0.000 HD
ATOM     14  H   TYR E   1      -2.763   6.745  14.816  0.00  0.00    +0.000 HD
ATOM     15  H   TYR E   1      -1.718   5.466  15.034  0.00  0.00    +0.000 HD
ATOM     16  H   TYR E   1      -0.296   7.352   6.661  0.00  0.00    +0.000 HD
TER 
REMARK  Name = /data/user_data/xianyang/t3-aimnet-affinity-balanced/L4/P37059/pocket.pdb
REMARK                            x       y       z     vdW  Elec       q    Type
REMARK                         _______ _______ _______ _____ _____    ______ ____
ATOM      1  N   PRO F   1       3.729   2.133   2.020  0.00  0.00    +0.000 N 
ATOM      2  CA  PRO F   1       4.983   2.873   1.871  0.00  0.00    +0.000 C 
ATOM      3  C   PRO F   1       5.768   2.940   3.171  0.00  0.00    +0.000 C 
ATOM      4  O   PRO F   1       5.215   2.840   4.269  0.00  0.00    +0.000 OA
ATOM      5  CB  PRO F   1       4.533   4.274   1.439  0.00  0.00    +0.000 C 
ATOM      6  CG  PRO F   1       3.105   4.125   1.030  0.00  0.00    +0.000 C 
ATOM      7  CD  PRO F   1       2.560   3.021   1.878  0.00  0.00    +0.000 C 
ATOM      8  N   GLY F   2       7.065   3.105   3.019  0.00  0.00    +0.000 N 
ATOM      9  CA  GLY F   2       7.922   3.407   4.146  0.00  0.00    +0.000 C 
ATOM     10  C   GLY F   2       7.900   4.893   4.443  0.00  0.00    +0.000 C 
ATOM     11  O   GLY F   2       6.862   5.550   4.340  0.00  0.00    +0.000 OA
ATOM     12  N   GLY F   3       9.042   5.441   4.826  0.00  0.00    +0.000 N 
ATOM     13  CA  GLY F   3       9.122   6.835   5.209  0.00  0.00    +0.000 C 
ATOM     14  C   GLY F   3       9.177   7.756   4.007  0.00  0.00    +0.000 C 
ATOM     15  O   GLY F   3      10.150   7.750   3.252  0.00  0.00    +0.000 OA
ATOM     16  N   PHE F   4       8.134   8.558   3.830  0.00  0.00    +0.000 N 
ATOM     17  CA  PHE F   4       8.073   9.577   2.795  0.00  0.00    +0.000 C 
ATOM     18  C   PHE F   4       7.592  10.874   3.417  0.00  0.00    +0.000 C 
ATOM     19  O   PHE F   4       6.626  10.886   4.181  0.00  0.00    +0.000 OA
ATOM     20  CB  PHE F   4       7.141   9.170   1.651  0.00  0.00    +0.000 C 
ATOM     21  CG  PHE F   4       7.710   8.114   0.750  0.00  0.00    +0.000 A 
ATOM     22  CD1 PHE F   4       8.472   8.463  -0.352  0.00  0.00    +0.000 A 
ATOM     23  CD2 PHE F   4       7.485   6.773   1.008  0.00  0.00    +0.000 A 
ATOM     24  CE1 PHE F   4       9.007   7.497  -1.182  0.00  0.00    +0.000 A 
ATOM     25  CE2 PHE F   4       8.020   5.798   0.184  0.00  0.00    +0.000 A 
ATOM     26  CZ  PHE F   4       8.780   6.160  -0.914  0.00  0.00    +0.000 A 
ATOM     27  N   LEU F   5       8.258  11.956   3.074  0.00  0.00    +0.000 N 
ATOM     28  CA  LEU F   5       7.922  13.254   3.639  0.00  0.00    +0.000 C 
ATOM     29  C   LEU F   5       6.730  13.826   2.887  0.00  0.00    +0.000 C 
ATOM     30  O   LEU F   5       6.874  14.435   1.827  0.00  0.00    +0.000 OA
ATOM     31  CB  LEU F   5       9.115  14.204   3.574  0.00  0.00    +0.000 C 
ATOM     32  CG  LEU F   5       8.904  15.571   4.203  0.00  0.00    +0.000 C 
ATOM     33  CD2 LEU F   5       8.514  15.440   5.671  0.00  0.00    +0.000 C 
ATOM     34  CD1 LEU F   5      10.144  16.437   4.042  0.00  0.00    +0.000 C 
ATOM     35  N   THR F   6       5.553  13.612   3.436  0.00  0.00    +0.000 N 
ATOM     36  CA  THR F   6       4.321  14.159   2.893  0.00  0.00    +0.000 C 
ATOM     37  C   THR F   6       3.744  15.151   3.889  0.00  0.00    +0.000 C 
ATOM     38  O   THR F   6       4.287  15.370   4.973  0.00  0.00    +0.000 OA
ATOM     39  CB  THR F   6       3.306  13.049   2.605  0.00  0.00    +0.000 C 
ATOM     40  OG1 THR F   6       2.794  12.542   3.841  0.00  0.00    +0.000 OA
ATOM     41  CG2 THR F   6       3.961  11.905   1.846  0.00  0.00    +0.000 C 
ATOM     42  N   ASN F   7       2.629  15.738   3.524  0.00  0.00    +0.000 N 
ATOM     43  CA  ASN F   7       1.940  16.674   4.403  0.00  0.00    +0.000 C 
ATOM     44  C   ASN F   7       0.861  16.006   5.241  0.00  0.00    +0.000 C 
ATOM     45  O   ASN F   7       0.038  16.692   5.850  0.00  0.00    +0.000 OA
ATOM     46  CB  ASN F   7       1.344  17.820   3.586  0.00  0.00    +0.000 C 
ATOM     47  CG  ASN F   7       2.408  18.731   3.012  0.00  0.00    +0.000 C 
ATOM     48  OD1 ASN F   7       3.455  18.932   3.609  0.00  0.00    +0.000 OA
ATOM     49  ND2 ASN F   7       2.132  19.297   1.845  0.00  0.00    +0.000 N 
ATOM     50  N   ILE F   8       0.839  14.689   5.293  0.00  0.00    +0.000 N 
ATOM     51  CA  ILE F   8      -0.150  13.991   6.088  0.00  0.00    +0.000 C 
ATOM     52  C   ILE F   8       0.033  14.276   7.569  0.00  0.00    +0.000 C 
ATOM     53  O   ILE F   8      -0.918  14.180   8.346  0.00  0.00    +0.000 OA
ATOM     54  CB  ILE F   8      -0.083  12.472   5.810  0.00  0.00    +0.000 C 
ATOM     55  CG1 ILE F   8      -1.267  11.751   6.461  0.00  0.00    +0.000 C 
ATOM     56  CG2 ILE F   8       1.243  11.901   6.312  0.00  0.00    +0.000 C 
ATOM     57  CD1 ILE F   8      -1.323  10.268   6.138  0.00  0.00    +0.000 C 
ATOM     58  N   ALA F   9       1.242  14.624   7.967  0.00  0.00    +0.000 N 
ATOM     59  CA  ALA F   9       1.497  14.937   9.364  0.00  0.00    +0.000 C 
ATOM     60  C   ALA F   9       0.995  16.316   9.763  0.00  0.00    +0.000 C 
ATOM     61  O   ALA F   9       0.941  16.613  10.960  0.00  0.00    +0.000 OA
ATOM     62  CB  ALA F   9       2.989  14.842   9.659  0.00  0.00    +0.000 C 
ATOM     63  N   GLY F  10       0.636  17.147   8.813  0.00  0.00    +0.000 N 
ATOM     64  CA  GLY F  10       0.144  18.474   9.116  0.00  0.00    +0.000 C 
ATOM     65  C   GLY F  10       1.270  19.458   9.354  0.00  0.00    +0.000 C 
ATOM     66  O   GLY F  10       2.436  19.198   9.061  0.00  0.00    +0.000 OA
ATOM     67  H   PRO F   1       3.707   1.700   2.943  0.00  0.00    +0.000 HD
ATOM     68  H   PRO F   1       3.685   1.425   1.287  0.00  0.00    +0.000 HD
ATOM     69  H   GLY F   2       7.460   3.021   2.121  0.00  0.00    +0.000 HD
ATOM     70  H   GLY F   3       9.856   4.888   4.851  0.00  0.00    +0.000 HD
ATOM     71  H   PHE F   4       7.361   8.457   4.431  0.00  0.00    +0.000 HD
ATOM     72  H   LEU F   5       8.995  11.886   2.425  0.00  0.00    +0.000 HD
ATOM     73  H   THR F   6       5.505  13.058   4.249  0.00  0.00    +0.000 HD
ATOM     74  H   THR F   6       3.522  12.175   4.366  0.00  0.00    +0.000 HD
ATOM     75  H   ASN F   7       2.250  15.542   2.637  0.00  0.00    +0.000 HD
ATOM     76  H   ASN F   7       1.276  19.108   1.397  0.00  0.00    +0.000 HD
ATOM     77  H   ASN F   7       2.783  19.906   1.427  0.00  0.00    +0.000 HD
ATOM     78  H   ILE F   8       1.505  14.172   4.784  0.00  0.00    +0.000 HD
ATOM     79  H   ALA F   9       1.977  14.672   7.313  0.00  0.00    +0.000 HD
ATOM     80  H   GLY F  10       0.703  16.861   7.873  0.00  0.00    +0.000 HD
TER 
REMARK  Name = /data/user_data/xianyang/t3-aimnet-affinity-balanced/L4/P37059/pocket.pdb
REMARK                            x       y       z     vdW  Elec       q    Type
REMARK                         _______ _______ _______ _____ _____    ______ ____
ATOM      1  N   TRP G   1       1.076  20.083  15.300  0.00  0.00    +0.000 N 
ATOM      2  CA  TRP G   1       1.761  19.198  16.237  0.00  0.00    +0.000 C 
ATOM      3  C   TRP G   1       1.873  19.832  17.612  0.00  0.00    +0.000 C 
ATOM      4  O   TRP G   1       1.725  19.145  18.628  0.00  0.00    +0.000 OA
ATOM      5  CB  TRP G   1       3.149  18.836  15.707  0.00  0.00    +0.000 C 
ATOM      6  CG  TRP G   1       3.110  17.948  14.503  0.00  0.00    +0.000 C 
ATOM      7  CD1 TRP G   1       3.493  18.269  13.238  0.00  0.00    +0.000 C 
ATOM      8  CD2 TRP G   1       2.660  16.597  14.450  0.00  0.00    +0.000 C 
ATOM      9  NE1 TRP G   1       3.310  17.201  12.400  0.00  0.00    +0.000 NA
ATOM     10  CE2 TRP G   1       2.801  16.161  13.115  0.00  0.00    +0.000 C 
ATOM     11  CE3 TRP G   1       2.148  15.712  15.403  0.00  0.00    +0.000 C 
ATOM     12  CZ2 TRP G   1       2.449  14.876  12.716  0.00  0.00    +0.000 C 
ATOM     13  CZ3 TRP G   1       1.798  14.436  14.999  0.00  0.00    +0.000 C 
ATOM     14  CH2 TRP G   1       1.949  14.030  13.672  0.00  0.00    +0.000 C 
ATOM     15  H   TRP G   1       1.016  19.631  14.387  0.00  0.00    +0.000 HD
ATOM     16  H   TRP G   1       1.597  20.956  15.214  0.00  0.00    +0.000 HD
ATOM     17  H   TRP G   1       0.136  20.281  15.644  0.00  0.00    +0.000 HD
TER 
REMARK  Name = /data/user_data/xianyang/t3-aimnet-affinity-balanced/L4/P37059/pocket.pdb
REMARK                            x       y       z     vdW  Elec       q    Type
REMARK                         _______ _______ _______ _____ _____    ______ ____
ATOM      1  N   PHE H   1      10.862  12.149  18.362  0.00  0.00    +0.000 N 
ATOM      2  CA  PHE H   1      10.624  11.028  17.465  0.00  0.00    +0.000 C 
ATOM      3  C   PHE H   1      10.021  11.504  16.151  0.00  0.00    +0.000 C 
ATOM      4  O   PHE H   1      10.389  11.018  15.079  0.00  0.00    +0.000 OA
ATOM      5  CB  PHE H   1       9.713  10.000  18.138  0.00  0.00    +0.000 C 
ATOM      6  CG  PHE H   1       9.438   8.795  17.287  0.00  0.00    +0.000 A 
ATOM      7  CD2 PHE H   1      10.434   7.865  17.042  0.00  0.00    +0.000 A 
ATOM      8  CD1 PHE H   1       8.181   8.589  16.742  0.00  0.00    +0.000 A 
ATOM      9  CE2 PHE H   1      10.184   6.748  16.262  0.00  0.00    +0.000 A 
ATOM     10  CE1 PHE H   1       7.924   7.473  15.961  0.00  0.00    +0.000 A 
ATOM     11  CZ  PHE H   1       8.926   6.550  15.722  0.00  0.00    +0.000 A 
ATOM     12  N   LEU H   2       9.105  12.455  16.211  0.00  0.00    +0.000 N 
ATOM     13  CA  LEU H   2       8.539  13.016  14.992  0.00  0.00    +0.000 C 
ATOM     14  C   LEU H   2       9.611  13.703  14.154  0.00  0.00    +0.000 C 
ATOM     15  O   LEU H   2       9.644  13.552  12.925  0.00  0.00    +0.000 OA
ATOM     16  CB  LEU H   2       7.420  14.005  15.335  0.00  0.00    +0.000 C 
ATOM     17  CG  LEU H   2       6.830  14.795  14.170  0.00  0.00    +0.000 C 
ATOM     18  CD1 LEU H   2       6.132  13.862  13.195  0.00  0.00    +0.000 C 
ATOM     19  CD2 LEU H   2       5.884  15.865  14.692  0.00  0.00    +0.000 C 
ATOM     20  H   PHE H   1      11.470  12.828  17.904  0.00  0.00    +0.000 HD
ATOM     21  H   PHE H   1      11.309  11.813  19.215  0.00  0.00    +0.000 HD
ATOM     22  H   PHE H   1       9.973  12.592  18.596  0.00  0.00    +0.000 HD
ATOM     23  H   LEU H   2       8.803  12.787  17.087  0.00  0.00    +0.000 HD
TER 
REMARK  Name = /data/user_data/xianyang/t3-aimnet-affinity-balanced/L4/P37059/pocket.pdb
REMARK                            x       y       z     vdW  Elec       q    Type
REMARK                         _______ _______ _______ _____ _____    ______ ____
ATOM      1  N   LEU I   1      12.749  12.980  14.140  0.00  0.00    +0.000 N 
ATOM      2  CA  LEU I   1      13.594  11.933  13.581  0.00  0.00    +0.000 C 
ATOM      3  C   LEU I   1      12.951  11.313  12.348  0.00  0.00    +0.000 C 
ATOM      4  O   LEU I   1      13.619  11.089  11.335  0.00  0.00    +0.000 OA
ATOM      5  CB  LEU I   1      13.872  10.861  14.634  0.00  0.00    +0.000 C 
ATOM      6  CG  LEU I   1      14.632   9.627  14.160  0.00  0.00    +0.000 C 
ATOM      7  CD1 LEU I   1      16.022  10.017  13.673  0.00  0.00    +0.000 C 
ATOM      8  CD2 LEU I   1      14.705   8.589  15.272  0.00  0.00    +0.000 C 
ATOM      9  N   ILE I   2      11.659  11.035  12.416  0.00  0.00    +0.000 N 
ATOM     10  CA  ILE I   2      10.965  10.471  11.270  0.00  0.00    +0.000 C 
ATOM     11  C   ILE I   2      11.053  11.420  10.080  0.00  0.00    +0.000 C 
ATOM     12  O   ILE I   2      11.328  11.000   8.951  0.00  0.00    +0.000 OA
ATOM     13  CB  ILE I   2       9.500  10.161  11.630  0.00  0.00    +0.000 C 
ATOM     14  CG1 ILE I   2       9.444   9.021  12.646  0.00  0.00    +0.000 C 
ATOM     15  CG2 ILE I   2       8.716   9.792  10.385  0.00  0.00    +0.000 C 
ATOM     16  CD1 ILE I   2       8.044   8.732  13.144  0.00  0.00    +0.000 C 
ATOM     17  N   ASN I   3      10.813  12.703  10.314  0.00  0.00    +0.000 N 
ATOM     18  CA  ASN I   3      10.868  13.661   9.223  0.00  0.00    +0.000 C 
ATOM     19  C   ASN I   3      12.265  13.757   8.627  0.00  0.00    +0.000 C 
ATOM     20  O   ASN I   3      12.417  13.909   7.410  0.00  0.00    +0.000 OA
ATOM     21  CB  ASN I   3      10.403  15.034   9.706  0.00  0.00    +0.000 C 
ATOM     22  CG  ASN I   3       8.921  15.064  10.026  0.00  0.00    +0.000 C 
ATOM     23  OD1 ASN I   3       8.152  14.250   9.522  0.00  0.00    +0.000 OA
ATOM     24  ND2 ASN I   3       8.513  16.003  10.862  0.00  0.00    +0.000 N 
ATOM     25  N   SER I   4      13.294  13.661   9.456  0.00  0.00    +0.000 N 
ATOM     26  CA  SER I   4      14.656  13.769   8.958  0.00  0.00    +0.000 C 
ATOM     27  C   SER I   4      15.051  12.569   8.109  0.00  0.00    +0.000 C 
ATOM     28  O   SER I   4      15.888  12.699   7.213  0.00  0.00    +0.000 OA
ATOM     29  CB  SER I   4      15.634  13.930  10.121  0.00  0.00    +0.000 C 
ATOM     30  OG  SER I   4      15.733  12.735  10.871  0.00  0.00    +0.000 OA
ATOM     31  N   LEU I   5      14.470  11.414   8.368  0.00  0.00    +0.000 N 
ATOM     32  CA  LEU I   5      14.791  10.207   7.625  0.00  0.00    +0.000 C 
ATOM     33  C   LEU I   5      13.863   9.970   6.444  0.00  0.00    +0.000 C 
ATOM     34  O   LEU I   5      14.094   9.044   5.661  0.00  0.00    +0.000 OA
ATOM     35  CB  LEU I   5      14.754   8.992   8.555  0.00  0.00    +0.000 C 
ATOM     36  CG  LEU I   5      15.735   9.002   9.723  0.00  0.00    +0.000 C 
ATOM     37  CD2 LEU I   5      15.510   7.790  10.621  0.00  0.00    +0.000 C 
ATOM     38  CD1 LEU I   5      17.167   9.033   9.216  0.00  0.00    +0.000 C 
ATOM     39  N   ALA I   6      12.825  10.777   6.296  0.00  0.00    +0.000 N 
ATOM     40  CA  ALA I   6      11.846  10.557   5.248  0.00  0.00    +0.000 C 
ATOM     41  C   ALA I   6      12.427  10.912   3.887  0.00  0.00    +0.000 C 
ATOM     42  O   ALA I   6      13.208  11.846   3.750  0.00  0.00    +0.000 OA
ATOM     43  CB  ALA I   6      10.588  11.380   5.509  0.00  0.00    +0.000 C 
ATOM     44  N   SER I   7      12.018  10.152   2.890  0.00  0.00    +0.000 N 
ATOM     45  CA  SER I   7      12.439  10.395   1.524  0.00  0.00    +0.000 C 
ATOM     46  CB  SER I   7      11.505  11.396   0.859  0.00  0.00    +0.000 C 
ATOM     47  OG  SER I   7      10.287  11.337   1.028  0.00  0.00    +0.000 OA
ATOM     48  C   SER I   7      12.466   9.103   0.718  0.00  0.00    +0.000 C 
ATOM     49  O   SER I   7      12.739   9.363  -0.648  0.00  0.00    +0.000 OA
ATOM     50  H   LEU I   1      12.571  13.689  13.429  0.00  0.00    +0.000 HD
ATOM     51  H   LEU I   1      13.221  13.409  14.936  0.00  0.00    +0.000 HD
ATOM     52  H   LEU I   1      11.864  12.575  14.446  0.00  0.00    +0.000 HD
ATOM     53  H   ILE I   2      11.164  11.211  13.249  0.00  0.00    +0.000 HD
ATOM     54  H   ASN I   3      10.598  13.006  11.226  0.00  0.00    +0.000 HD
ATOM     55  H   ASN I   3       7.561  16.067  11.104  0.00  0.00    +0.000 HD
ATOM     56  H   ASN I   3       9.161  16.638  11.243  0.00  0.00    +0.000 HD
ATOM     57  H   SER I   4      13.135  13.515  10.417  0.00  0.00    +0.000 HD
ATOM     58  H   SER I   4      14.864  12.511  11.238  0.00  0.00    +0.000 HD
ATOM     59  H   LEU I   5      13.798  11.368   9.086  0.00  0.00    +0.000 HD
ATOM     60  H   ALA I   6      12.715  11.540   6.908  0.00  0.00    +0.000 HD
ATOM     61  H   SER I   7      11.411   9.400   3.078  0.00  0.00    +0.000 HD
ATOM     62  H   SER I   7      13.607   9.788  -0.729  0.00  0.00    +0.000 HD
TER 
REMARK  Name = /data/user_data/xianyang/t3-aimnet-affinity-balanced/L4/P37059/pocket.pdb
REMARK                            x       y       z     vdW  Elec       q    Type
REMARK                         _______ _______ _______ _____ _____    ______ ____
ATOM      1  N   LYS J   1      11.924   3.444   1.987  0.00  0.00    +0.000 N 
ATOM      2  CA  LYS J   1      13.099   3.043   2.738  0.00  0.00    +0.000 C 
ATOM      3  C   LYS J   1      12.714   2.011   3.789  0.00  0.00    +0.000 C 
ATOM      4  O   LYS J   1      11.986   2.308   4.732  0.00  0.00    +0.000 OA
ATOM      5  CB  LYS J   1      13.741   4.265   3.388  0.00  0.00    +0.000 C 
ATOM      6  CG  LYS J   1      14.927   3.960   4.272  0.00  0.00    +0.000 C 
ATOM      7  CD  LYS J   1      15.463   5.228   4.916  0.00  0.00    +0.000 C 
ATOM      8  CE  LYS J   1      16.598   4.946   5.878  0.00  0.00    +0.000 C 
ATOM      9  NZ  LYS J   1      17.085   6.187   6.534  0.00  0.00    +0.000 N 
ATOM     10  N   GLY J   2      13.199   0.811   3.610  0.00  0.00    +0.000 N 
ATOM     11  CA  GLY J   2      13.042  -0.238   4.595  0.00  0.00    +0.000 C 
ATOM     12  C   GLY J   2      11.645  -0.787   4.781  0.00  0.00    +0.000 C 
ATOM     13  O   GLY J   2      11.417  -1.558   5.715  0.00  0.00    +0.000 OA
ATOM     14  N   ALA J   3      10.713  -0.431   3.909  0.00  0.00    +0.000 N 
ATOM     15  CA  ALA J   3       9.339  -0.872   4.107  0.00  0.00    +0.000 C 
ATOM     16  C   ALA J   3       9.223  -2.391   4.047  0.00  0.00    +0.000 C 
ATOM     17  O   ALA J   3       8.672  -3.019   4.957  0.00  0.00    +0.000 OA
ATOM     18  CB  ALA J   3       8.427  -0.224   3.071  0.00  0.00    +0.000 C 
ATOM     19  H   LYS J   1      12.189   4.135   1.285  0.00  0.00    +0.000 HD
ATOM     20  H   LYS J   1      11.237   3.850   2.622  0.00  0.00    +0.000 HD
ATOM     21  H   LYS J   1      11.520   2.628   1.526  0.00  0.00    +0.000 HD
ATOM     22  H   LYS J   1      17.438   6.830   5.825  0.00  0.00    +0.000 HD
ATOM     23  H   LYS J   1      17.834   5.955   7.186  0.00  0.00    +0.000 HD
ATOM     24  H   LYS J   1      16.317   6.627   7.041  0.00  0.00    +0.000 HD
ATOM     25  H   GLY J   2      13.687   0.614   2.778  0.00  0.00    +0.000 HD
ATOM     26  H   ALA J   3      10.948   0.128   3.133  0.00  0.00    +0.000 HD
TER 
REMARK  Name = /data/user_data/xianyang/t3-aimnet-affinity-balanced/L4/P37059/pocket.pdb
REMARK                            x       y       z     vdW  Elec       q    Type
REMARK                         _______ _______ _______ _____ _____    ______ ____
ATOM      1  N   TRP K   1      11.041  -4.250   7.115  0.00  0.00    +0.000 N 
ATOM      2  CA  TRP K   1      10.392  -4.255   8.424  0.00  0.00    +0.000 C 
ATOM      3  C   TRP K   1       9.113  -5.073   8.422  0.00  0.00    +0.000 C 
ATOM      4  O   TRP K   1       8.776  -5.700   9.428  0.00  0.00    +0.000 OA
ATOM      5  CB  TRP K   1      10.124  -2.820   8.881  0.00  0.00    +0.000 C 
ATOM      6  CG  TRP K   1      11.374  -2.141   9.344  0.00  0.00    +0.000 C 
ATOM      7  CD1 TRP K   1      12.063  -1.154   8.706  0.00  0.00    +0.000 C 
ATOM      8  CD2 TRP K   1      12.095  -2.421  10.545  0.00  0.00    +0.000 C 
ATOM      9  NE1 TRP K   1      13.166  -0.797   9.435  0.00  0.00    +0.000 NA
ATOM     10  CE2 TRP K   1      13.209  -1.556  10.570  0.00  0.00    +0.000 C 
ATOM     11  CE3 TRP K   1      11.904  -3.316  11.602  0.00  0.00    +0.000 C 
ATOM     12  CZ2 TRP K   1      14.123  -1.569  11.616  0.00  0.00    +0.000 C 
ATOM     13  CZ3 TRP K   1      12.822  -3.323  12.639  0.00  0.00    +0.000 C 
ATOM     14  CH2 TRP K   1      13.914  -2.454  12.637  0.00  0.00    +0.000 C 
ATOM     15  H   TRP K   1      11.216  -5.210   6.818  0.00  0.00    +0.000 HD
ATOM     16  H   TRP K   1      11.926  -3.747   7.176  0.00  0.00    +0.000 HD
ATOM     17  H   TRP K   1      10.434  -3.790   6.436  0.00  0.00    +0.000 HD
TER 
REMARK  Name = /data/user_data/xianyang/t3-aimnet-affinity-balanced/L4/P37059/pocket.pdb
REMARK                            x       y       z     vdW  Elec       q    Type
REMARK                         _______ _______ _______ _____ _____    ______ ____
ATOM      1  N   HIS L   1      15.533   0.127  17.114  0.00  0.00    +0.000 N 
ATOM      2  CA  HIS L   1      15.568   1.003  15.950  0.00  0.00    +0.000 C 
ATOM      3  C   HIS L   1      14.621   2.182  16.091  0.00  0.00    +0.000 C 
ATOM      4  O   HIS L   1      15.032   3.335  15.959  0.00  0.00    +0.000 OA
ATOM      5  CB  HIS L   1      15.246   0.217  14.679  0.00  0.00    +0.000 C 
ATOM      6  CG  HIS L   1      15.444   0.998  13.422  0.00  0.00    +0.000 A 
ATOM      7  ND1 HIS L   1      14.447   1.746  12.844  0.00  0.00    +0.000 N 
ATOM      8  CD2 HIS L   1      16.534   1.146  12.636  0.00  0.00    +0.000 A 
ATOM      9  CE1 HIS L   1      14.918   2.322  11.748  0.00  0.00    +0.000 A 
ATOM     10  NE2 HIS L   1      16.177   1.974  11.607  0.00  0.00    +0.000 NA
ATOM     11  N   PHE L   2      13.346   1.925  16.343  0.00  0.00    +0.000 N 
ATOM     12  CA  PHE L   2      12.336   2.974  16.359  0.00  0.00    +0.000 C 
ATOM     13  C   PHE L   2      12.136   3.594  17.732  0.00  0.00    +0.000 C 
ATOM     14  O   PHE L   2      11.608   4.704  17.830  0.00  0.00    +0.000 OA
ATOM     15  CB  PHE L   2      11.001   2.429  15.846  0.00  0.00    +0.000 C 
ATOM     16  CG  PHE L   2      11.055   1.908  14.436  0.00  0.00    +0.000 A 
ATOM     17  CD1 PHE L   2      11.175   2.781  13.365  0.00  0.00    +0.000 A 
ATOM     18  CD2 PHE L   2      10.980   0.551  14.185  0.00  0.00    +0.000 A 
ATOM     19  CE1 PHE L   2      11.222   2.307  12.065  0.00  0.00    +0.000 A 
ATOM     20  CE2 PHE L   2      11.022   0.068  12.888  0.00  0.00    +0.000 A 
ATOM     21  CZ  PHE L   2      11.148   0.949  11.831  0.00  0.00    +0.000 A 
ATOM     22  H   HIS L   1      16.182  -0.648  16.976  0.00  0.00    +0.000 HD
ATOM     23  H   HIS L   1      14.588  -0.238  17.236  0.00  0.00    +0.000 HD
ATOM     24  H   HIS L   1      15.804   0.654  17.944  0.00  0.00    +0.000 HD
ATOM     25  H   HIS L   1      13.530   1.839  13.189  0.00  0.00    +0.000 HD
ATOM     26  H   PHE L   2      13.073   0.997  16.525  0.00  0.00    +0.000 HD
TER 
