REMARK  Name = /data/user_data/xianyang/t3-aimnet-affinity-balanced/L1/P49759/pocket.pdb
REMARK                            x       y       z     vdW  Elec       q    Type
REMARK                         _______ _______ _______ _____ _____    ______ ____
ATOM      1  N   LEU A   1      34.245  26.981   6.594  0.00  0.00    +0.000 N 
ATOM      2  CA  LEU A   1      33.748  28.205   5.982  0.00  0.00    +0.000 C 
ATOM      3  C   LEU A   1      32.763  27.912   4.863  0.00  0.00    +0.000 C 
ATOM      4  O   LEU A   1      31.888  28.740   4.615  0.00  0.00    +0.000 OA
ATOM      5  CB  LEU A   1      34.907  29.052   5.462  0.00  0.00    +0.000 C 
ATOM      6  CG  LEU A   1      35.944  29.442   6.527  0.00  0.00    +0.000 C 
ATOM      7  CD1 LEU A   1      37.047  30.237   5.928  0.00  0.00    +0.000 C 
ATOM      8  CD2 LEU A   1      35.313  30.139   7.742  0.00  0.00    +0.000 C 
ATOM      9  N   GLY A   2      32.932  26.805   4.160  0.00  0.00    +0.000 N 
ATOM     10  CA  GLY A   2      32.026  26.452   3.058  0.00  0.00    +0.000 C 
ATOM     11  C   GLY A   2      32.313  25.082   2.520  0.00  0.00    +0.000 C 
ATOM     12  O   GLY A   2      33.379  24.526   2.737  0.00  0.00    +0.000 OA
ATOM     13  N   GLU A   3      31.335  24.512   1.823  0.00  0.00    +0.000 N 
ATOM     14  CA  GLU A   3      31.455  23.171   1.338  0.00  0.00    +0.000 C 
ATOM     15  C   GLU A   3      30.874  23.159  -0.075  0.00  0.00    +0.000 C 
ATOM     16  O   GLU A   3      29.857  23.831  -0.338  0.00  0.00    +0.000 OA
ATOM     17  CB  GLU A   3      30.625  22.270   2.235  0.00  0.00    +0.000 C 
ATOM     18  CG  GLU A   3      30.914  20.804   2.072  0.00  0.00    +0.000 C 
ATOM     19  CD  GLU A   3      30.492  19.987   3.288  0.00  0.00    +0.000 C 
ATOM     20  OE1 GLU A   3      30.280  18.785   3.073  0.00  0.00    +0.000 OA
ATOM     21  OE2 GLU A   3      30.387  20.536   4.436  0.00  0.00    +0.000 OA
ATOM     22  H   LEU A   1      33.459  26.428   6.935  0.00  0.00    +0.000 HD
ATOM     23  H   LEU A   1      34.859  27.216   7.374  0.00  0.00    +0.000 HD
ATOM     24  H   LEU A   1      34.765  26.442   5.902  0.00  0.00    +0.000 HD
ATOM     25  H   GLY A   2      33.681  26.204   4.379  0.00  0.00    +0.000 HD
ATOM     26  H   GLU A   3      30.513  25.022   1.637  0.00  0.00    +0.000 HD
TER 
REMARK  Name = /data/user_data/xianyang/t3-aimnet-affinity-balanced/L1/P49759/pocket.pdb
REMARK                            x       y       z     vdW  Elec       q    Type
REMARK                         _______ _______ _______ _____ _____    ______ ____
ATOM      1  N   PHE B   1      33.509  19.902  -4.757  0.00  0.00    +0.000 N 
ATOM      2  CA  PHE B   1      34.995  19.775  -4.800  0.00  0.00    +0.000 C 
ATOM      3  C   PHE B   1      35.609  19.339  -3.475  0.00  0.00    +0.000 C 
ATOM      4  O   PHE B   1      36.726  18.825  -3.449  0.00  0.00    +0.000 OA
ATOM      5  CB  PHE B   1      35.673  21.082  -5.245  0.00  0.00    +0.000 C 
ATOM      6  CG  PHE B   1      35.626  22.160  -4.180  0.00  0.00    +0.000 A 
ATOM      7  CD2 PHE B   1      36.585  22.209  -3.168  0.00  0.00    +0.000 A 
ATOM      8  CD1 PHE B   1      34.572  23.057  -4.142  0.00  0.00    +0.000 A 
ATOM      9  CE2 PHE B   1      36.499  23.137  -2.163  0.00  0.00    +0.000 A 
ATOM     10  CE1 PHE B   1      34.478  24.010  -3.105  0.00  0.00    +0.000 A 
ATOM     11  CZ  PHE B   1      35.466  24.042  -2.127  0.00  0.00    +0.000 A 
ATOM     12  H   PHE B   1      33.166  20.195  -5.672  0.00  0.00    +0.000 HD
ATOM     13  H   PHE B   1      33.247  20.596  -4.057  0.00  0.00    +0.000 HD
ATOM     14  H   PHE B   1      33.098  19.001  -4.513  0.00  0.00    +0.000 HD
TER 
REMARK  Name = /data/user_data/xianyang/t3-aimnet-affinity-balanced/L1/P49759/pocket.pdb
REMARK                            x       y       z     vdW  Elec       q    Type
REMARK                         _______ _______ _______ _____ _____    ______ ____
ATOM      1  N   VAL C   1      36.246  24.381   2.344  0.00  0.00    +0.000 N 
ATOM      2  CA  VAL C   1      37.157  25.420   2.769  0.00  0.00    +0.000 C 
ATOM      3  C   VAL C   1      37.029  25.502   4.283  0.00  0.00    +0.000 C 
ATOM      4  O   VAL C   1      35.907  25.689   4.796  0.00  0.00    +0.000 OA
ATOM      5  CB  VAL C   1      36.883  26.820   2.148  0.00  0.00    +0.000 C 
ATOM      6  CG2 VAL C   1      38.007  27.763   2.552  0.00  0.00    +0.000 C 
ATOM      7  CG1 VAL C   1      36.794  26.724   0.630  0.00  0.00    +0.000 C 
ATOM      8  H   VAL C   1      36.292  24.283   1.330  0.00  0.00    +0.000 HD
ATOM      9  H   VAL C   1      35.296  24.629   2.619  0.00  0.00    +0.000 HD
ATOM     10  H   VAL C   1      36.508  23.498   2.783  0.00  0.00    +0.000 HD
TER 
REMARK  Name = /data/user_data/xianyang/t3-aimnet-affinity-balanced/L1/P49759/pocket.pdb
REMARK                            x       y       z     vdW  Elec       q    Type
REMARK                         _______ _______ _______ _____ _____    ______ ____
ATOM      1  N   ALA D   1      43.099  29.970   5.781  0.00  0.00    +0.000 N 
ATOM      2  CA  ALA D   1      42.049  29.185   5.125  0.00  0.00    +0.000 C 
ATOM      3  C   ALA D   1      42.695  28.048   4.373  0.00  0.00    +0.000 C 
ATOM      4  O   ALA D   1      43.681  28.262   3.695  0.00  0.00    +0.000 OA
ATOM      5  CB  ALA D   1      41.295  30.064   4.152  0.00  0.00    +0.000 C 
ATOM      6  N   VAL D   2      42.128  26.865   4.481  0.00  0.00    +0.000 N 
ATOM      7  CA  VAL D   2      42.626  25.725   3.739  0.00  0.00    +0.000 C 
ATOM      8  C   VAL D   2      41.536  25.190   2.850  0.00  0.00    +0.000 C 
ATOM      9  O   VAL D   2      40.428  24.825   3.307  0.00  0.00    +0.000 OA
ATOM     10  CB  VAL D   2      43.119  24.597   4.691  0.00  0.00    +0.000 C 
ATOM     11  CG1 VAL D   2      43.833  23.503   3.898  0.00  0.00    +0.000 C 
ATOM     12  CG2 VAL D   2      44.089  25.164   5.698  0.00  0.00    +0.000 C 
ATOM     13  N   LYS D   3      41.811  25.220   1.548  0.00  0.00    +0.000 N 
ATOM     14  CA  LYS D   3      40.938  24.587   0.568  0.00  0.00    +0.000 C 
ATOM     15  C   LYS D   3      41.319  23.127   0.468  0.00  0.00    +0.000 C 
ATOM     16  O   LYS D   3      42.420  22.806   0.107  0.00  0.00    +0.000 OA
ATOM     17  CB  LYS D   3      41.037  25.254  -0.794  0.00  0.00    +0.000 C 
ATOM     18  CG  LYS D   3      39.931  24.862  -1.779  0.00  0.00    +0.000 C 
ATOM     19  CD  LYS D   3      40.152  25.364  -3.213  0.00  0.00    +0.000 C 
ATOM     20  CE  LYS D   3      38.875  25.174  -4.003  0.00  0.00    +0.000 C 
ATOM     21  NZ  LYS D   3      39.087  25.582  -5.420  0.00  0.00    +0.000 N 
ATOM     22  H   ALA D   1      42.675  30.743   6.294  0.00  0.00    +0.000 HD
ATOM     23  H   ALA D   1      43.738  30.339   5.077  0.00  0.00    +0.000 HD
ATOM     24  H   ALA D   1      43.614  29.374   6.429  0.00  0.00    +0.000 HD
ATOM     25  H   VAL D   2      41.352  26.753   5.076  0.00  0.00    +0.000 HD
ATOM     26  H   LYS D   3      42.624  25.681   1.240  0.00  0.00    +0.000 HD
ATOM     27  H   LYS D   3      39.822  25.007  -5.833  0.00  0.00    +0.000 HD
ATOM     28  H   LYS D   3      39.363  26.563  -5.454  0.00  0.00    +0.000 HD
ATOM     29  H   LYS D   3      38.221  25.455  -5.944  0.00  0.00    +0.000 HD
TER 
REMARK  Name = /data/user_data/xianyang/t3-aimnet-affinity-balanced/L1/P49759/pocket.pdb
REMARK                            x       y       z     vdW  Elec       q    Type
REMARK                         _______ _______ _______ _____ _____    ______ ____
ATOM      1  N   GLU E   1      46.020  26.141 -10.247  0.00  0.00    +0.000 N 
ATOM      2  CA  GLU E   1      46.075  27.294  -9.337  0.00  0.00    +0.000 C 
ATOM      3  C   GLU E   1      47.387  27.338  -8.575  0.00  0.00    +0.000 C 
ATOM      4  O   GLU E   1      47.997  28.380  -8.382  0.00  0.00    +0.000 OA
ATOM      5  CB  GLU E   1      44.916  27.224  -8.339  0.00  0.00    +0.000 C 
ATOM      6  CG  GLU E   1      44.979  28.343  -7.341  0.00  0.00    +0.000 C 
ATOM      7  CD  GLU E   1      43.644  28.642  -6.642  0.00  0.00    +0.000 C 
ATOM      8  OE2 GLU E   1      42.940  27.702  -6.262  0.00  0.00    +0.000 OA
ATOM      9  OE1 GLU E   1      43.323  29.847  -6.418  0.00  0.00    +0.000 OA
ATOM     10  H   GLU E   1      46.794  26.193 -10.909  0.00  0.00    +0.000 HD
ATOM     11  H   GLU E   1      45.136  26.151 -10.756  0.00  0.00    +0.000 HD
ATOM     12  H   GLU E   1      46.092  25.278  -9.707  0.00  0.00    +0.000 HD
TER 
REMARK  Name = /data/user_data/xianyang/t3-aimnet-affinity-balanced/L1/P49759/pocket.pdb
REMARK                            x       y       z     vdW  Elec       q    Type
REMARK                         _______ _______ _______ _____ _____    ______ ____
ATOM      1  N   VAL F   1      45.059  37.086  -3.938  0.00  0.00    +0.000 N 
ATOM      2  CA  VAL F   1      45.146  36.197  -2.774  0.00  0.00    +0.000 C 
ATOM      3  C   VAL F   1      46.563  35.662  -2.623  0.00  0.00    +0.000 C 
ATOM      4  O   VAL F   1      47.278  35.350  -3.609  0.00  0.00    +0.000 OA
ATOM      5  CB  VAL F   1      44.118  35.058  -2.887  0.00  0.00    +0.000 C 
ATOM      6  CG1 VAL F   1      44.438  34.061  -3.976  0.00  0.00    +0.000 C 
ATOM      7  CG2 VAL F   1      43.929  34.410  -1.535  0.00  0.00    +0.000 C 
ATOM      8  H   VAL F   1      44.105  37.437  -4.027  0.00  0.00    +0.000 HD
ATOM      9  H   VAL F   1      45.311  36.569  -4.780  0.00  0.00    +0.000 HD
ATOM     10  H   VAL F   1      45.700  37.870  -3.816  0.00  0.00    +0.000 HD
TER 
REMARK  Name = /data/user_data/xianyang/t3-aimnet-affinity-balanced/L1/P49759/pocket.pdb
REMARK                            x       y       z     vdW  Elec       q    Type
REMARK                         _______ _______ _______ _____ _____    ______ ____
ATOM      1  N   ILE G   1      45.255  23.369  -0.123  0.00  0.00    +0.000 N 
ATOM      2  CA  ILE G   1      45.900  24.596  -0.468  0.00  0.00    +0.000 C 
ATOM      3  C   ILE G   1      45.644  25.613   0.633  0.00  0.00    +0.000 C 
ATOM      4  O   ILE G   1      44.473  25.910   0.957  0.00  0.00    +0.000 OA
ATOM      5  CB  ILE G   1      45.383  25.175  -1.824  0.00  0.00    +0.000 C 
ATOM      6  CG1 ILE G   1      45.446  24.107  -2.900  0.00  0.00    +0.000 C 
ATOM      7  CG2 ILE G   1      46.258  26.334  -2.236  0.00  0.00    +0.000 C 
ATOM      8  CD1 ILE G   1      44.775  24.556  -4.219  0.00  0.00    +0.000 C 
ATOM      9  H   ILE G   1      45.421  22.680  -0.856  0.00  0.00    +0.000 HD
ATOM     10  H   ILE G   1      44.252  23.528  -0.026  0.00  0.00    +0.000 HD
ATOM     11  H   ILE G   1      45.631  23.024   0.760  0.00  0.00    +0.000 HD
TER 
REMARK  Name = /data/user_data/xianyang/t3-aimnet-affinity-balanced/L1/P49759/pocket.pdb
REMARK                            x       y       z     vdW  Elec       q    Type
REMARK                         _______ _______ _______ _____ _____    ______ ____
ATOM      1  N   PHE H   1      45.847  29.309   2.314  0.00  0.00    +0.000 N 
ATOM      2  CA  PHE H   1      45.853  30.717   1.960  0.00  0.00    +0.000 C 
ATOM      3  C   PHE H   1      45.813  31.591   3.203  0.00  0.00    +0.000 C 
ATOM      4  O   PHE H   1      45.343  31.139   4.252  0.00  0.00    +0.000 OA
ATOM      5  CB  PHE H   1      44.600  31.064   1.130  0.00  0.00    +0.000 C 
ATOM      6  CG  PHE H   1      44.456  30.308  -0.172  0.00  0.00    +0.000 A 
ATOM      7  CD2 PHE H   1      43.748  29.111  -0.251  0.00  0.00    +0.000 A 
ATOM      8  CD1 PHE H   1      44.981  30.819  -1.356  0.00  0.00    +0.000 A 
ATOM      9  CE2 PHE H   1      43.557  28.428  -1.452  0.00  0.00    +0.000 A 
ATOM     10  CE1 PHE H   1      44.781  30.141  -2.555  0.00  0.00    +0.000 A 
ATOM     11  CZ  PHE H   1      44.087  28.958  -2.605  0.00  0.00    +0.000 A 
ATOM     12  N   GLU H   2      46.170  32.843   3.069  0.00  0.00    +0.000 N 
ATOM     13  CA  GLU H   2      45.795  33.872   4.031  0.00  0.00    +0.000 C 
ATOM     14  C   GLU H   2      44.302  33.769   4.274  0.00  0.00    +0.000 C 
ATOM     15  O   GLU H   2      43.504  33.490   3.348  0.00  0.00    +0.000 OA
ATOM     16  CB  GLU H   2      46.144  35.264   3.528  0.00  0.00    +0.000 C 
ATOM     17  CG  GLU H   2      45.430  35.687   2.242  0.00  0.00    +0.000 C 
ATOM     18  CD  GLU H   2      45.809  37.065   1.764  0.00  0.00    +0.000 C 
ATOM     19  OE2 GLU H   2      46.057  37.977   2.581  0.00  0.00    +0.000 OA
ATOM     20  OE1 GLU H   2      45.767  37.265   0.527  0.00  0.00    +0.000 OA
ATOM     21  N   LEU H   3      43.886  33.982   5.502  0.00  0.00    +0.000 N 
ATOM     22  CA  LEU H   3      42.461  34.002   5.799  0.00  0.00    +0.000 C 
ATOM     23  C   LEU H   3      41.856  35.328   5.369  0.00  0.00    +0.000 C 
ATOM     24  O   LEU H   3      42.365  36.393   5.727  0.00  0.00    +0.000 OA
ATOM     25  CB  LEU H   3      42.186  33.776   7.306  0.00  0.00    +0.000 C 
ATOM     26  CG  LEU H   3      40.712  33.805   7.725  0.00  0.00    +0.000 C 
ATOM     27  CD1 LEU H   3      39.956  32.637   7.118  0.00  0.00    +0.000 C 
ATOM     28  CD2 LEU H   3      40.572  33.753   9.256  0.00  0.00    +0.000 C 
ATOM     29  N   LEU H   4      40.736  35.258   4.663  0.00  0.00    +0.000 N 
ATOM     30  CA  LEU H   4      39.984  36.430   4.230  0.00  0.00    +0.000 C 
ATOM     31  C   LEU H   4      38.594  36.312   4.797  0.00  0.00    +0.000 C 
ATOM     32  O   LEU H   4      38.212  35.337   5.467  0.00  0.00    +0.000 OA
ATOM     33  CB  LEU H   4      39.933  36.502   2.691  0.00  0.00    +0.000 C 
ATOM     34  CG  LEU H   4      41.278  36.561   2.015  0.00  0.00    +0.000 C 
ATOM     35  CD1 LEU H   4      41.112  36.326   0.495  0.00  0.00    +0.000 C 
ATOM     36  CD2 LEU H   4      41.956  37.883   2.332  0.00  0.00    +0.000 C 
ATOM     37  N   GLY H   5      37.811  37.380   4.576  0.00  0.00    +0.000 N 
ATOM     38  CA  GLY H   5      36.436  37.453   4.999  0.00  0.00    +0.000 C 
ATOM     39  C   GLY H   5      35.466  36.955   3.947  0.00  0.00    +0.000 C 
ATOM     40  O   GLY H   5      35.811  36.153   3.024  0.00  0.00    +0.000 OA
ATOM     41  H   PHE H   1      45.874  28.745   1.465  0.00  0.00    +0.000 HD
ATOM     42  H   PHE H   1      44.999  29.094   2.838  0.00  0.00    +0.000 HD
ATOM     43  H   PHE H   1      46.664  29.099   2.888  0.00  0.00    +0.000 HD
ATOM     44  H   GLU H   2      46.713  33.100   2.289  0.00  0.00    +0.000 HD
ATOM     45  H   LEU H   3      44.540  34.128   6.223  0.00  0.00    +0.000 HD
ATOM     46  H   LEU H   4      40.394  34.368   4.418  0.00  0.00    +0.000 HD
ATOM     47  H   GLY H   5      38.196  38.152   4.101  0.00  0.00    +0.000 HD
TER 
REMARK  Name = /data/user_data/xianyang/t3-aimnet-affinity-balanced/L1/P49759/pocket.pdb
REMARK                            x       y       z     vdW  Elec       q    Type
REMARK                         _______ _______ _______ _____ _____    ______ ____
ATOM      1  N   ASP I   1      28.588  37.279  -1.037  0.00  0.00    +0.000 N 
ATOM      2  CA  ASP I   1      28.136  36.841   0.333  0.00  0.00    +0.000 C 
ATOM      3  C   ASP I   1      27.604  38.082   1.071  0.00  0.00    +0.000 C 
ATOM      4  O   ASP I   1      26.554  38.084   1.737  0.00  0.00    +0.000 OA
ATOM      5  CB  ASP I   1      29.310  36.315   1.196  0.00  0.00    +0.000 C 
ATOM      6  CG  ASP I   1      29.886  34.936   0.774  0.00  0.00    +0.000 C 
ATOM      7  OD1 ASP I   1      29.170  34.232   0.019  0.00  0.00    +0.000 OA
ATOM      8  OD2 ASP I   1      31.041  34.548   1.291  0.00  0.00    +0.000 OA
ATOM      9  H   ASP I   1      27.785  37.616  -1.568  0.00  0.00    +0.000 HD
ATOM     10  H   ASP I   1      29.010  36.489  -1.524  0.00  0.00    +0.000 HD
ATOM     11  H   ASP I   1      29.274  38.028  -0.945  0.00  0.00    +0.000 HD
TER 
REMARK  Name = /data/user_data/xianyang/t3-aimnet-affinity-balanced/L1/P49759/pocket.pdb
REMARK                            x       y       z     vdW  Elec       q    Type
REMARK                         _______ _______ _______ _____ _____    ______ ____
ATOM      1  N   GLU J   1      31.628  36.426  -6.380  0.00  0.00    +0.000 N 
ATOM      2  CA  GLU J   1      31.934  35.321  -5.489  0.00  0.00    +0.000 C 
ATOM      3  C   GLU J   1      33.456  35.141  -5.358  0.00  0.00    +0.000 C 
ATOM      4  O   GLU J   1      33.944  34.504  -4.395  0.00  0.00    +0.000 OA
ATOM      5  CB  GLU J   1      31.288  34.054  -6.028  0.00  0.00    +0.000 C 
ATOM      6  CG  GLU J   1      29.753  34.057  -6.062  0.00  0.00    +0.000 C 
ATOM      7  CD  GLU J   1      29.091  34.648  -7.349  0.00  0.00    +0.000 C 
ATOM      8  OE1 GLU J   1      29.636  35.519  -8.070  0.00  0.00    +0.000 OA
ATOM      9  OE2 GLU J   1      27.903  34.291  -7.548  0.00  0.00    +0.000 OA
ATOM     10  N   ASN J   2      34.194  35.600  -6.379  0.00  0.00    +0.000 N 
ATOM     11  CA  ASN J   2      35.641  35.445  -6.402  0.00  0.00    +0.000 C 
ATOM     12  C   ASN J   2      36.419  36.698  -6.000  0.00  0.00    +0.000 C 
ATOM     13  O   ASN J   2      37.632  36.809  -6.238  0.00  0.00    +0.000 OA
ATOM     14  CB  ASN J   2      36.101  34.917  -7.766  0.00  0.00    +0.000 C 
ATOM     15  CG  ASN J   2      35.808  33.432  -7.955  0.00  0.00    +0.000 C 
ATOM     16  OD1 ASN J   2      35.511  32.710  -7.043  0.00  0.00    +0.000 OA
ATOM     17  ND2 ASN J   2      35.811  33.003  -9.216  0.00  0.00    +0.000 N 
ATOM     18  H   GLU J   1      30.616  36.532  -6.456  0.00  0.00    +0.000 HD
ATOM     19  H   GLU J   1      32.020  36.238  -7.303  0.00  0.00    +0.000 HD
ATOM     20  H   GLU J   1      32.033  37.285  -6.008  0.00  0.00    +0.000 HD
ATOM     21  H   ASN J   2      33.747  36.052  -7.130  0.00  0.00    +0.000 HD
ATOM     22  H   ASN J   2      36.059  33.617  -9.944  0.00  0.00    +0.000 HD
ATOM     23  H   ASN J   2      35.565  32.072  -9.420  0.00  0.00    +0.000 HD
TER 
REMARK  Name = /data/user_data/xianyang/t3-aimnet-affinity-balanced/L1/P49759/pocket.pdb
REMARK                            x       y       z     vdW  Elec       q    Type
REMARK                         _______ _______ _______ _____ _____    ______ ____
ATOM      1  N   LEU K   1      36.948  38.678  -2.496  0.00  0.00    +0.000 N 
ATOM      2  CA  LEU K   1      36.699  38.511  -1.074  0.00  0.00    +0.000 C 
ATOM      3  C   LEU K   1      37.172  39.760  -0.286  0.00  0.00    +0.000 C 
ATOM      4  O   LEU K   1      38.211  40.318  -0.563  0.00  0.00    +0.000 OA
ATOM      5  CB  LEU K   1      37.356  37.247  -0.487  0.00  0.00    +0.000 C 
ATOM      6  CG  LEU K   1      36.541  35.970  -0.620  0.00  0.00    +0.000 C 
ATOM      7  CD1 LEU K   1      36.072  35.655  -1.953  0.00  0.00    +0.000 C 
ATOM      8  CD2 LEU K   1      37.352  34.807   0.018  0.00  0.00    +0.000 C 
ATOM      9  H   LEU K   1      36.631  37.848  -2.997  0.00  0.00    +0.000 HD
ATOM     10  H   LEU K   1      37.947  38.809  -2.653  0.00  0.00    +0.000 HD
ATOM     11  H   LEU K   1      36.441  39.495  -2.836  0.00  0.00    +0.000 HD
TER 
REMARK  Name = /data/user_data/xianyang/t3-aimnet-affinity-balanced/L1/P49759/pocket.pdb
REMARK                            x       y       z     vdW  Elec       q    Type
REMARK                         _______ _______ _______ _____ _____    ______ ____
ATOM      1  N   VAL L   1      40.427  36.120  -5.768  0.00  0.00    +0.000 N 
ATOM      2  CA  VAL L   1      40.715  34.717  -5.470  0.00  0.00    +0.000 C 
ATOM      3  C   VAL L   1      40.349  33.804  -6.657  0.00  0.00    +0.000 C 
ATOM      4  O   VAL L   1      39.840  34.274  -7.683  0.00  0.00    +0.000 OA
ATOM      5  CB  VAL L   1      39.998  34.218  -4.188  0.00  0.00    +0.000 C 
ATOM      6  CG2 VAL L   1      40.285  35.159  -3.011  0.00  0.00    +0.000 C 
ATOM      7  CG1 VAL L   1      38.490  34.038  -4.367  0.00  0.00    +0.000 C 
ATOM      8  N   ASP L   2      40.597  32.515  -6.443  0.00  0.00    +0.000 N 
ATOM      9  CA  ASP L   2      40.262  31.455  -7.339  0.00  0.00    +0.000 C 
ATOM     10  C   ASP L   2      40.975  31.573  -8.713  0.00  0.00    +0.000 C 
ATOM     11  O   ASP L   2      40.386  31.914  -9.730  0.00  0.00    +0.000 OA
ATOM     12  CB  ASP L   2      38.766  31.234  -7.539  0.00  0.00    +0.000 C 
ATOM     13  CG  ASP L   2      38.487  29.895  -8.238  0.00  0.00    +0.000 C 
ATOM     14  OD2 ASP L   2      39.440  29.063  -8.435  0.00  0.00    +0.000 OA
ATOM     15  OD1 ASP L   2      37.381  29.735  -8.748  0.00  0.00    +0.000 OA
ATOM     16  H   VAL L   1      40.921  36.396  -6.617  0.00  0.00    +0.000 HD
ATOM     17  H   VAL L   1      40.736  36.703  -4.990  0.00  0.00    +0.000 HD
ATOM     18  H   VAL L   1      39.423  36.239  -5.905  0.00  0.00    +0.000 HD
ATOM     19  H   ASP L   2      41.047  32.273  -5.601  0.00  0.00    +0.000 HD
TER 
