REMARK  Name = /data/user_data/xianyang/t3-aimnet-affinity-balanced/L4/Q13094/pocket.pdb
REMARK                            x       y       z     vdW  Elec       q    Type
REMARK                         _______ _______ _______ _____ _____    ______ ____
ATOM      1  N   ASN A   1      21.827  10.414 -14.356  0.00  0.00    +0.000 N 
ATOM      2  CA  ASN A   1      23.264  10.409 -14.140  0.00  0.00    +0.000 C 
ATOM      3  C   ASN A   1      23.902   9.159 -14.732  0.00  0.00    +0.000 C 
ATOM      4  O   ASN A   1      24.917   8.664 -14.225  0.00  0.00    +0.000 OA
ATOM      5  CB  ASN A   1      23.605  10.563 -12.656  0.00  0.00    +0.000 C 
ATOM      6  CG  ASN A   1      25.009  11.079 -12.434  0.00  0.00    +0.000 C 
ATOM      7  OD1 ASN A   1      25.581  11.751 -13.287  0.00  0.00    +0.000 OA
ATOM      8  ND2 ASN A   1      25.572  10.785 -11.276  0.00  0.00    +0.000 N 
ATOM      9  N   TYR A   2      23.325   8.656 -15.796  0.00  0.00    +0.000 N 
ATOM     10  CA  TYR A   2      23.863   7.520 -16.527  0.00  0.00    +0.000 C 
ATOM     11  C   TYR A   2      24.586   8.040 -17.757  0.00  0.00    +0.000 C 
ATOM     12  O   TYR A   2      24.095   7.949 -18.880  0.00  0.00    +0.000 OA
ATOM     13  CB  TYR A   2      22.754   6.549 -16.927  0.00  0.00    +0.000 C 
ATOM     14  CG  TYR A   2      22.121   5.801 -15.779  0.00  0.00    +0.000 A 
ATOM     15  CD2 TYR A   2      22.613   5.897 -14.483  0.00  0.00    +0.000 A 
ATOM     16  CD1 TYR A   2      21.026   4.966 -16.000  0.00  0.00    +0.000 A 
ATOM     17  CE2 TYR A   2      22.027   5.197 -13.443  0.00  0.00    +0.000 A 
ATOM     18  CE1 TYR A   2      20.442   4.261 -14.972  0.00  0.00    +0.000 A 
ATOM     19  CZ  TYR A   2      20.945   4.379 -13.695  0.00  0.00    +0.000 A 
ATOM     20  OH  TYR A   2      20.361   3.682 -12.671  0.00  0.00    +0.000 OA
ATOM     21  H   ASN A   1      21.633  10.310 -15.352  0.00  0.00    +0.000 HD
ATOM     22  H   ASN A   1      21.436  11.296 -14.024  0.00  0.00    +0.000 HD
ATOM     23  H   ASN A   1      21.404   9.640 -13.844  0.00  0.00    +0.000 HD
ATOM     24  H   ASN A   1      26.485  11.096 -11.080  0.00  0.00    +0.000 HD
ATOM     25  H   ASN A   1      25.079  10.255 -10.609  0.00  0.00    +0.000 HD
ATOM     26  H   TYR A   2      22.489   9.066 -16.115  0.00  0.00    +0.000 HD
ATOM     27  H   TYR A   2      19.626   3.126 -12.842  0.00  0.00    +0.000 HD
TER 
REMARK  Name = /data/user_data/xianyang/t3-aimnet-affinity-balanced/L4/Q13094/pocket.pdb
REMARK                            x       y       z     vdW  Elec       q    Type
REMARK                         _______ _______ _______ _____ _____    ______ ____
ATOM      1  N   ASP B   1      27.210   6.990 -19.263  0.00  0.00    +0.000 N 
ATOM      2  CA  ASP B   1      27.572   5.949 -20.208  0.00  0.00    +0.000 C 
ATOM      3  C   ASP B   1      26.385   5.531 -21.068  0.00  0.00    +0.000 C 
ATOM      4  O   ASP B   1      26.542   5.273 -22.267  0.00  0.00    +0.000 OA
ATOM      5  CB  ASP B   1      28.160   4.741 -19.468  0.00  0.00    +0.000 C 
ATOM      6  CG  ASP B   1      27.362   4.351 -18.238  0.00  0.00    +0.000 C 
ATOM      7  OD1 ASP B   1      26.353   5.011 -17.926  0.00  0.00    +0.000 OA
ATOM      8  OD2 ASP B   1      27.758   3.372 -17.566  0.00  0.00    +0.000 OA
ATOM      9  H   ASP B   1      26.821   7.787 -19.767  0.00  0.00    +0.000 HD
ATOM     10  H   ASP B   1      28.040   7.286 -18.749  0.00  0.00    +0.000 HD
ATOM     11  H   ASP B   1      26.515   6.629 -18.609  0.00  0.00    +0.000 HD
TER 
REMARK  Name = /data/user_data/xianyang/t3-aimnet-affinity-balanced/L4/Q13094/pocket.pdb
REMARK                            x       y       z     vdW  Elec       q    Type
REMARK                         _______ _______ _______ _____ _____    ______ ____
ATOM      1  N   LEU C   1      26.486  -3.125 -16.596  0.00  0.00    +0.000 N 
ATOM      2  CA  LEU C   1      25.956  -2.945 -15.255  0.00  0.00    +0.000 C 
ATOM      3  C   LEU C   1      24.614  -2.224 -15.249  0.00  0.00    +0.000 C 
ATOM      4  O   LEU C   1      23.889  -2.267 -14.251  0.00  0.00    +0.000 OA
ATOM      5  CB  LEU C   1      26.976  -2.183 -14.393  0.00  0.00    +0.000 C 
ATOM      6  CG  LEU C   1      27.064  -0.661 -14.562  0.00  0.00    +0.000 C 
ATOM      7  CD2 LEU C   1      26.272   0.034 -13.474  0.00  0.00    +0.000 C 
ATOM      8  CD1 LEU C   1      28.534  -0.220 -14.524  0.00  0.00    +0.000 C 
ATOM      9  N   ARG C   2      24.270  -1.560 -16.327  0.00  0.00    +0.000 N 
ATOM     10  CA  ARG C   2      23.011  -0.838 -16.425  0.00  0.00    +0.000 C 
ATOM     11  C   ARG C   2      21.938  -1.632 -17.159  0.00  0.00    +0.000 C 
ATOM     12  O   ARG C   2      20.783  -1.206 -17.192  0.00  0.00    +0.000 OA
ATOM     13  CB  ARG C   2      23.220   0.498 -17.139  0.00  0.00    +0.000 C 
ATOM     14  CG  ARG C   2      24.259   1.384 -16.482  0.00  0.00    +0.000 C 
ATOM     15  CD  ARG C   2      23.707   2.063 -15.250  0.00  0.00    +0.000 C 
ATOM     16  NE  ARG C   2      24.716   2.840 -14.539  0.00  0.00    +0.000 N 
ATOM     17  CZ  ARG C   2      25.172   4.022 -14.903  0.00  0.00    +0.000 C 
ATOM     18  NH1 ARG C   2      24.720   4.602 -16.002  0.00  0.00    +0.000 N 
ATOM     19  NH2 ARG C   2      26.094   4.631 -14.185  0.00  0.00    +0.000 N 
ATOM     20  H   LEU C   1      25.807  -3.631 -17.165  0.00  0.00    +0.000 HD
ATOM     21  H   LEU C   1      27.355  -3.658 -16.550  0.00  0.00    +0.000 HD
ATOM     22  H   LEU C   1      26.668  -2.213 -17.015  0.00  0.00    +0.000 HD
ATOM     23  H   ARG C   2      24.885  -1.550 -17.096  0.00  0.00    +0.000 HD
ATOM     24  H   ARG C   2      25.089   2.448 -13.716  0.00  0.00    +0.000 HD
ATOM     25  H   ARG C   2      24.031   4.156 -16.546  0.00  0.00    +0.000 HD
ATOM     26  H   ARG C   2      25.072   5.480 -16.276  0.00  0.00    +0.000 HD
ATOM     27  H   ARG C   2      26.430   5.514 -14.462  0.00  0.00    +0.000 HD
ATOM     28  H   ARG C   2      26.446   4.203 -13.371  0.00  0.00    +0.000 HD
TER 
REMARK  Name = /data/user_data/xianyang/t3-aimnet-affinity-balanced/L4/Q13094/pocket.pdb
REMARK                            x       y       z     vdW  Elec       q    Type
REMARK                         _______ _______ _______ _____ _____    ______ ____
ATOM      1  N   ILE D   1      18.738  -2.592 -15.179  0.00  0.00    +0.000 N 
ATOM      2  CA  ILE D   1      17.938  -1.420 -14.870  0.00  0.00    +0.000 C 
ATOM      3  C   ILE D   1      17.230  -0.915 -16.121  0.00  0.00    +0.000 C 
ATOM      4  O   ILE D   1      16.052  -0.547 -16.078  0.00  0.00    +0.000 OA
ATOM      5  CB  ILE D   1      18.818  -0.324 -14.241  0.00  0.00    +0.000 C 
ATOM      6  CG1 ILE D   1      19.438  -0.836 -12.939  0.00  0.00    +0.000 C 
ATOM      7  CG2 ILE D   1      18.012   0.935 -13.997  0.00  0.00    +0.000 C 
ATOM      8  CD1 ILE D   1      20.452   0.117 -12.335  0.00  0.00    +0.000 C 
ATOM      9  H   ILE D   1      18.144  -3.309 -15.595  0.00  0.00    +0.000 HD
ATOM     10  H   ILE D   1      19.158  -2.953 -14.322  0.00  0.00    +0.000 HD
ATOM     11  H   ILE D   1      19.474  -2.337 -15.837  0.00  0.00    +0.000 HD
TER 
REMARK  Name = /data/user_data/xianyang/t3-aimnet-affinity-balanced/L4/Q13094/pocket.pdb
REMARK                            x       y       z     vdW  Elec       q    Type
REMARK                         _______ _______ _______ _____ _____    ______ ____
ATOM      1  N   PRO E   1      15.420  -7.942 -10.572  0.00  0.00    +0.000 N 
ATOM      2  CA  PRO E   1      15.981  -6.667 -10.137  0.00  0.00    +0.000 C 
ATOM      3  C   PRO E   1      15.034  -5.512 -10.442  0.00  0.00    +0.000 C 
ATOM      4  O   PRO E   1      14.400  -5.465 -11.495  0.00  0.00    +0.000 OA
ATOM      5  CB  PRO E   1      17.282  -6.552 -10.938  0.00  0.00    +0.000 C 
ATOM      6  CG  PRO E   1      17.646  -7.959 -11.271  0.00  0.00    +0.000 C 
ATOM      7  CD  PRO E   1      16.346  -8.680 -11.455  0.00  0.00    +0.000 C 
ATOM      8  N   LEU E   2      14.956  -4.594  -9.509  0.00  0.00    +0.000 N 
ATOM      9  CA  LEU E   2      14.059  -3.463  -9.624  0.00  0.00    +0.000 C 
ATOM     10  C   LEU E   2      14.819  -2.217 -10.039  0.00  0.00    +0.000 C 
ATOM     11  O   LEU E   2      15.967  -2.017  -9.640  0.00  0.00    +0.000 OA
ATOM     12  CB  LEU E   2      13.337  -3.199  -8.301  0.00  0.00    +0.000 C 
ATOM     13  CG  LEU E   2      12.413  -4.296  -7.793  0.00  0.00    +0.000 C 
ATOM     14  CD2 LEU E   2      11.832  -3.904  -6.445  0.00  0.00    +0.000 C 
ATOM     15  CD1 LEU E   2      11.300  -4.565  -8.793  0.00  0.00    +0.000 C 
ATOM     16  H   PRO E   1      15.223  -8.513  -9.750  0.00  0.00    +0.000 HD
ATOM     17  H   PRO E   1      14.568  -7.749 -11.099  0.00  0.00    +0.000 HD
ATOM     18  H   LEU E   2      15.523  -4.676  -8.708  0.00  0.00    +0.000 HD
TER 
REMARK  Name = /data/user_data/xianyang/t3-aimnet-affinity-balanced/L4/Q13094/pocket.pdb
REMARK                            x       y       z     vdW  Elec       q    Type
REMARK                         _______ _______ _______ _____ _____    ______ ____
ATOM      1  N   PRO F   1      15.798   1.658  -9.820  0.00  0.00    +0.000 N 
ATOM      2  CA  PRO F   1      15.807   2.603  -8.706  0.00  0.00    +0.000 C 
ATOM      3  C   PRO F   1      14.829   3.743  -8.962  0.00  0.00    +0.000 C 
ATOM      4  O   PRO F   1      15.080   4.623  -9.778  0.00  0.00    +0.000 OA
ATOM      5  CB  PRO F   1      17.250   3.095  -8.665  0.00  0.00    +0.000 C 
ATOM      6  CG  PRO F   1      17.749   2.918 -10.061  0.00  0.00    +0.000 C 
ATOM      7  CD  PRO F   1      17.033   1.716 -10.611  0.00  0.00    +0.000 C 
ATOM      8  H   PRO F   1      15.691   0.714  -9.448  0.00  0.00    +0.000 HD
ATOM      9  H   PRO F   1      15.023   1.908 -10.434  0.00  0.00    +0.000 HD
TER 
REMARK  Name = /data/user_data/xianyang/t3-aimnet-affinity-balanced/L4/Q13094/pocket.pdb
REMARK                            x       y       z     vdW  Elec       q    Type
REMARK                         _______ _______ _______ _____ _____    ______ ____
ATOM      1  N   TRP G   1      20.592   2.198  -3.223  0.00  0.00    +0.000 N 
ATOM      2  CA  TRP G   1      20.558   2.421  -4.648  0.00  0.00    +0.000 C 
ATOM      3  C   TRP G   1      20.560   1.130  -5.439  0.00  0.00    +0.000 C 
ATOM      4  O   TRP G   1      20.344   1.154  -6.651  0.00  0.00    +0.000 OA
ATOM      5  CB  TRP G   1      21.733   3.301  -5.073  0.00  0.00    +0.000 C 
ATOM      6  CG  TRP G   1      23.052   2.870  -4.501  0.00  0.00    +0.000 C 
ATOM      7  CD1 TRP G   1      23.630   3.308  -3.342  0.00  0.00    +0.000 C 
ATOM      8  CD2 TRP G   1      23.968   1.925  -5.063  0.00  0.00    +0.000 A 
ATOM      9  NE1 TRP G   1      24.830   2.688  -3.141  0.00  0.00    +0.000 NA
ATOM     10  CE2 TRP G   1      25.070   1.840  -4.183  0.00  0.00    +0.000 A 
ATOM     11  CE3 TRP G   1      23.967   1.152  -6.224  0.00  0.00    +0.000 A 
ATOM     12  CZ2 TRP G   1      26.152   1.013  -4.437  0.00  0.00    +0.000 A 
ATOM     13  CZ3 TRP G   1      25.050   0.328  -6.472  0.00  0.00    +0.000 A 
ATOM     14  CH2 TRP G   1      26.123   0.264  -5.597  0.00  0.00    +0.000 A 
ATOM     15  N   GLY G   2      20.809   0.021  -4.783  0.00  0.00    +0.000 N 
ATOM     16  CA  GLY G   2      20.754  -1.258  -5.458  0.00  0.00    +0.000 C 
ATOM     17  C   GLY G   2      19.333  -1.742  -5.613  0.00  0.00    +0.000 C 
ATOM     18  O   GLY G   2      18.489  -1.513  -4.743  0.00  0.00    +0.000 OA
ATOM     19  N   PRO G   3      19.047  -2.421  -6.692  0.00  0.00    +0.000 N 
ATOM     20  CA  PRO G   3      17.673  -2.865  -6.918  0.00  0.00    +0.000 C 
ATOM     21  C   PRO G   3      17.133  -3.755  -5.808  0.00  0.00    +0.000 C 
ATOM     22  O   PRO G   3      16.022  -3.526  -5.317  0.00  0.00    +0.000 OA
ATOM     23  CB  PRO G   3      17.764  -3.621  -8.244  0.00  0.00    +0.000 C 
ATOM     24  CG  PRO G   3      18.934  -3.014  -8.941  0.00  0.00    +0.000 C 
ATOM     25  CD  PRO G   3      19.910  -2.669  -7.856  0.00  0.00    +0.000 C 
ATOM     26  N   ASP G   4      17.889  -4.741  -5.394  0.00  0.00    +0.000 N 
ATOM     27  CA  ASP G   4      17.392  -5.662  -4.383  0.00  0.00    +0.000 C 
ATOM     28  C   ASP G   4      17.286  -4.987  -3.026  0.00  0.00    +0.000 C 
ATOM     29  O   ASP G   4      16.281  -5.123  -2.324  0.00  0.00    +0.000 OA
ATOM     30  CB  ASP G   4      18.303  -6.890  -4.286  0.00  0.00    +0.000 C 
ATOM     31  CG  ASP G   4      18.264  -7.735  -5.541  0.00  0.00    +0.000 C 
ATOM     32  OD1 ASP G   4      17.237  -7.726  -6.243  0.00  0.00    +0.000 OA
ATOM     33  OD2 ASP G   4      19.272  -8.421  -5.814  0.00  0.00    +0.000 OA
ATOM     34  N   ARG G   5      18.305  -4.262  -2.635  0.00  0.00    +0.000 N 
ATOM     35  CA  ARG G   5      18.306  -3.637  -1.324  0.00  0.00    +0.000 C 
ATOM     36  C   ARG G   5      17.320  -2.485  -1.261  0.00  0.00    +0.000 C 
ATOM     37  O   ARG G   5      16.713  -2.236  -0.217  0.00  0.00    +0.000 OA
ATOM     38  CB  ARG G   5      19.710  -3.155  -0.966  0.00  0.00    +0.000 C 
ATOM     39  CG  ARG G   5      20.705  -4.285  -0.775  0.00  0.00    +0.000 C 
ATOM     40  CD  ARG G   5      22.056  -3.759  -0.352  0.00  0.00    +0.000 C 
ATOM     41  NE  ARG G   5      23.014  -4.835  -0.128  0.00  0.00    +0.000 N 
ATOM     42  CZ  ARG G   5      24.285  -4.655   0.206  0.00  0.00    +0.000 C 
ATOM     43  NH1 ARG G   5      24.768  -3.431   0.365  0.00  0.00    +0.000 N 
ATOM     44  NH2 ARG G   5      25.079  -5.695   0.389  0.00  0.00    +0.000 N 
ATOM     45  H   TRP G   1      19.804   1.610  -2.952  0.00  0.00    +0.000 HD
ATOM     46  H   TRP G   1      20.532   3.093  -2.737  0.00  0.00    +0.000 HD
ATOM     47  H   TRP G   1      21.465   1.733  -2.972  0.00  0.00    +0.000 HD
ATOM     48  H   GLY G   2      21.035   0.059  -3.825  0.00  0.00    +0.000 HD
ATOM     49  H   ASP G   4      18.793  -4.859  -5.766  0.00  0.00    +0.000 HD
ATOM     50  H   ARG G   5      19.076  -4.140  -3.235  0.00  0.00    +0.000 HD
ATOM     51  H   ARG G   5      22.695  -5.761  -0.232  0.00  0.00    +0.000 HD
ATOM     52  H   ARG G   5      24.184  -2.650   0.231  0.00  0.00    +0.000 HD
ATOM     53  H   ARG G   5      25.711  -3.303   0.617  0.00  0.00    +0.000 HD
ATOM     54  H   ARG G   5      24.729  -6.608   0.273  0.00  0.00    +0.000 HD
ATOM     55  H   ARG G   5      26.021  -5.557   0.641  0.00  0.00    +0.000 HD
TER 
REMARK  Name = /data/user_data/xianyang/t3-aimnet-affinity-balanced/L4/Q13094/pocket.pdb
REMARK                            x       y       z     vdW  Elec       q    Type
REMARK                         _______ _______ _______ _____ _____    ______ ____
ATOM      1  N   GLY H   1      21.347   7.337  -4.285  0.00  0.00    +0.000 N 
ATOM      2  CA  GLY H   1      20.774   6.438  -5.265  0.00  0.00    +0.000 C 
ATOM      3  C   GLY H   1      20.695   7.047  -6.649  0.00  0.00    +0.000 C 
ATOM      4  O   GLY H   1      20.862   8.247  -6.849  0.00  0.00    +0.000 OA
ATOM      5  N   ARG H   2      20.447   6.183  -7.599  0.00  0.00    +0.000 N 
ATOM      6  CA  ARG H   2      20.264   6.580  -8.986  0.00  0.00    +0.000 C 
ATOM      7  C   ARG H   2      18.809   6.333  -9.352  0.00  0.00    +0.000 C 
ATOM      8  O   ARG H   2      18.436   5.253  -9.804  0.00  0.00    +0.000 OA
ATOM      9  CB  ARG H   2      21.186   5.790  -9.905  0.00  0.00    +0.000 C 
ATOM     10  CG  ARG H   2      22.658   6.031  -9.622  0.00  0.00    +0.000 C 
ATOM     11  CD  ARG H   2      23.057   7.449  -9.984  0.00  0.00    +0.000 C 
ATOM     12  NE  ARG H   2      24.497   7.639  -9.868  0.00  0.00    +0.000 N 
ATOM     13  CZ  ARG H   2      25.118   8.032  -8.774  0.00  0.00    +0.000 C 
ATOM     14  NH2 ARG H   2      24.434   8.288  -7.682  0.00  0.00    +0.000 N 
ATOM     15  NH1 ARG H   2      26.440   8.168  -8.781  0.00  0.00    +0.000 N 
ATOM     16  H   GLY H   1      21.375   6.876  -3.376  0.00  0.00    +0.000 HD
ATOM     17  H   GLY H   1      20.775   8.179  -4.221  0.00  0.00    +0.000 HD
ATOM     18  H   GLY H   1      22.294   7.589  -4.568  0.00  0.00    +0.000 HD
ATOM     19  H   ARG H   2      20.382   5.229  -7.367  0.00  0.00    +0.000 HD
ATOM     20  H   ARG H   2      25.046   7.461 -10.665  0.00  0.00    +0.000 HD
ATOM     21  H   ARG H   2      23.455   8.186  -7.679  0.00  0.00    +0.000 HD
ATOM     22  H   ARG H   2      24.901   8.581  -6.866  0.00  0.00    +0.000 HD
ATOM     23  H   ARG H   2      26.950   7.976  -9.601  0.00  0.00    +0.000 HD
ATOM     24  H   ARG H   2      26.909   8.461  -7.967  0.00  0.00    +0.000 HD
TER 
