REMARK  Name = /home/xianyang/aimnet2_score_pipelines/work/L1234-fixed-receptor-eint-20260921/L1/P08922/prepared.pdb
REMARK                            x       y       z     vdW  Elec       q    Type
REMARK                         _______ _______ _______ _____ _____    ______ ____
ATOM      1  CH3 ACE A   1      50.501 -26.977  -8.811  0.00  0.00    +0.000 C 
ATOM      2  C   ACE A   1      49.143 -27.230  -8.164  0.00  0.00    +0.000 C 
ATOM      3  O   ACE A   1      48.102 -26.891  -8.726  0.00  0.00    +0.000 OA
ATOM      4  N   LEU A   2      49.161 -27.822  -6.976  0.00  0.00    +0.000 N 
ATOM      5  H   LEU A   2      50.049 -28.025  -6.547  0.00  0.00    +0.000 HD
ATOM      6  CA  LEU A   2      47.961 -27.916  -6.159  0.00  0.00    +0.000 C 
ATOM      7  C   LEU A   2      47.891 -26.718  -5.217  0.00  0.00    +0.000 C 
ATOM      8  O   LEU A   2      48.826 -26.463  -4.457  0.00  0.00    +0.000 OA
ATOM      9  CB  LEU A   2      47.974 -29.204  -5.340  0.00  0.00    +0.000 C 
ATOM     10  CG  LEU A   2      46.801 -29.343  -4.371  0.00  0.00    +0.000 C 
ATOM     11  CD1 LEU A   2      45.518 -29.486  -5.163  0.00  0.00    +0.000 C 
ATOM     12  CD2 LEU A   2      47.003 -30.547  -3.468  0.00  0.00    +0.000 C 
ATOM     13  N   LEU A   3      46.780 -25.988  -5.265  0.00  0.00    +0.000 N 
ATOM     14  H   LEU A   3      46.021 -26.279  -5.871  0.00  0.00    +0.000 HD
ATOM     15  CA  LEU A   3      46.623 -24.785  -4.455  0.00  0.00    +0.000 C 
ATOM     16  C   LEU A   3      45.830 -25.052  -3.180  0.00  0.00    +0.000 C 
ATOM     17  O   LEU A   3      45.978 -24.344  -2.184  0.00  0.00    +0.000 OA
ATOM     18  CB  LEU A   3      45.933 -23.695  -5.273  0.00  0.00    +0.000 C 
ATOM     19  CG  LEU A   3      46.663 -23.306  -6.560  0.00  0.00    +0.000 C 
ATOM     20  CD1 LEU A   3      45.940 -22.157  -7.238  0.00  0.00    +0.000 C 
ATOM     21  CD2 LEU A   3      48.092 -22.919  -6.233  0.00  0.00    +0.000 C 
ATOM     22  N   GLY A   4      44.989 -26.077  -3.212  0.00  0.00    +0.000 N 
ATOM     23  H   GLY A   4      44.854 -26.603  -4.068  0.00  0.00    +0.000 HD
ATOM     24  CA  GLY A   4      44.174 -26.388  -2.054  0.00  0.00    +0.000 C 
ATOM     25  C   GLY A   4      42.982 -27.241  -2.422  0.00  0.00    +0.000 C 
ATOM     26  O   GLY A   4      42.817 -27.621  -3.584  0.00  0.00    +0.000 OA
ATOM     27  N   SER A   5      42.152 -27.545  -1.430  0.00  0.00    +0.000 N 
ATOM     28  H   SER A   5      42.343 -27.202  -0.500  0.00  0.00    +0.000 HD
ATOM     29  CA  SER A   5      40.965 -28.364  -1.642  0.00  0.00    +0.000 C 
ATOM     30  C   SER A   5      39.690 -27.575  -1.341  0.00  0.00    +0.000 C 
ATOM     31  O   SER A   5      39.234 -27.523  -0.196  0.00  0.00    +0.000 OA
ATOM     32  CB  SER A   5      41.026 -29.609  -0.754  0.00  0.00    +0.000 C 
ATOM     33  OG  SER A   5      39.860 -30.401  -0.903  0.00  0.00    +0.000 OA
ATOM     34  HG  SER A   5      39.124 -29.989  -0.443  0.00  0.00    +0.000 HD
ATOM     35  N   GLY A   6      39.117 -26.968  -2.377  0.00  0.00    +0.000 N 
ATOM     36  H   GLY A   6      39.489 -27.114  -3.302  0.00  0.00    +0.000 HD
ATOM     37  CA  GLY A   6      37.915 -26.172  -2.197  0.00  0.00    +0.000 C 
ATOM     38  C   GLY A   6      36.670 -26.828  -2.765  0.00  0.00    +0.000 C 
ATOM     39  O   GLY A   6      36.669 -27.285  -3.910  0.00  0.00    +0.000 OA
ATOM     40  N   ALA A   7      35.609 -26.859  -1.959  0.00  0.00    +0.000 N 
ATOM     41  H   ALA A   7      35.721 -26.552  -1.004  0.00  0.00    +0.000 HD
ATOM     42  CA  ALA A   7      34.354 -27.519  -2.316  0.00  0.00    +0.000 C 
ATOM     43  C   ALA A   7      34.510 -29.034  -2.244  0.00  0.00    +0.000 C 
ATOM     44  O   ALA A   7      35.120 -29.556  -1.309  0.00  0.00    +0.000 OA
ATOM     45  CB  ALA A   7      33.906 -27.098  -3.718  0.00  0.00    +0.000 C 
ATOM     46  N   PHE A   8      33.958 -29.737  -3.231  0.00  0.00    +0.000 N 
ATOM     47  H   PHE A   8      33.442 -29.266  -3.954  0.00  0.00    +0.000 HD
ATOM     48  CA  PHE A   8      34.066 -31.195  -3.282  0.00  0.00    +0.000 C 
ATOM     49  C   PHE A   8      34.579 -31.715  -4.631  0.00  0.00    +0.000 C 
ATOM     50  O   PHE A   8      33.962 -32.595  -5.228  0.00  0.00    +0.000 OA
ATOM     51  CB  PHE A   8      32.703 -31.829  -2.986  0.00  0.00    +0.000 C 
ATOM     52  CG  PHE A   8      31.723 -30.891  -2.333  0.00  0.00    +0.000 A 
ATOM     53  CD1 PHE A   8      30.947 -30.033  -3.100  0.00  0.00    +0.000 A 
ATOM     54  CD2 PHE A   8      31.573 -30.870  -0.956  0.00  0.00    +0.000 A 
ATOM     55  CE1 PHE A   8      30.041 -29.171  -2.505  0.00  0.00    +0.000 A 
ATOM     56  CE2 PHE A   8      30.667 -30.011  -0.356  0.00  0.00    +0.000 A 
ATOM     57  CZ  PHE A   8      29.901 -29.161  -1.132  0.00  0.00    +0.000 A 
ATOM     58  N   GLY A   9      35.700 -31.180  -5.111  0.00  0.00    +0.000 N 
ATOM     59  H   GLY A   9      36.081 -31.539  -5.975  0.00  0.00    +0.000 HD
ATOM     60  CA  GLY A   9      36.407 -30.132  -4.399  0.00  0.00    +0.000 C 
ATOM     61  C   GLY A   9      37.910 -30.301  -4.453  0.00  0.00    +0.000 C 
ATOM     62  O   GLY A   9      38.459 -31.239  -3.874  0.00  0.00    +0.000 OA
ATOM     63  N   GLU A  10      38.577 -29.382  -5.142  0.00  0.00    +0.000 N 
ATOM     64  H   GLU A  10      38.049 -28.694  -5.654  0.00  0.00    +0.000 HD
ATOM     65  CA  GLU A  10      40.010 -29.491  -5.376  0.00  0.00    +0.000 C 
ATOM     66  C   GLU A  10      40.424 -28.423  -6.380  0.00  0.00    +0.000 C 
ATOM     67  O   GLU A  10      39.868 -28.344  -7.475  0.00  0.00    +0.000 OA
ATOM     68  CB  GLU A  10      40.333 -30.874  -5.934  0.00  0.00    +0.000 C 
ATOM     69  CG  GLU A  10      41.682 -31.424  -5.527  0.00  0.00    +0.000 C 
ATOM     70  CD  GLU A  10      41.613 -32.903  -5.209  0.00  0.00    +0.000 C 
ATOM     71  OE1 GLU A  10      41.225 -33.245  -4.073  0.00  0.00    +0.000 OA
ATOM     72  OE2 GLU A  10      41.938 -33.724  -6.092  0.00  0.00    +0.000 OA
ATOM     73  N   VAL A  11      41.398 -27.600  -6.005  0.00  0.00    +0.000 N 
ATOM     74  H   VAL A  11      41.926 -27.782  -5.155  0.00  0.00    +0.000 HD
ATOM     75  CA  VAL A  11      41.829 -26.500  -6.861  0.00  0.00    +0.000 C 
ATOM     76  C   VAL A  11      43.314 -26.606  -7.158  0.00  0.00    +0.000 C 
ATOM     77  O   VAL A  11      44.101 -26.939  -6.275  0.00  0.00    +0.000 OA
ATOM     78  CB  VAL A  11      41.564 -25.136  -6.196  0.00  0.00    +0.000 C 
ATOM     79  CG1 VAL A  11      41.971 -24.017  -7.139  0.00  0.00    +0.000 C 
ATOM     80  CG2 VAL A  11      40.103 -25.017  -5.807  0.00  0.00    +0.000 C 
ATOM     81  N   TYR A  12      43.688 -26.311  -8.398  0.00  0.00    +0.000 N 
ATOM     82  H   TYR A  12      42.978 -26.067  -9.079  0.00  0.00    +0.000 HD
ATOM     83  CA  TYR A  12      45.070 -26.421  -8.845  0.00  0.00    +0.000 C 
ATOM     84  C   TYR A  12      45.481 -25.149  -9.568  0.00  0.00    +0.000 C 
ATOM     85  O   TYR A  12      44.654 -24.516 -10.227  0.00  0.00    +0.000 OA
ATOM     86  CB  TYR A  12      45.233 -27.606  -9.808  0.00  0.00    +0.000 C 
ATOM     87  CG  TYR A  12      44.909 -28.959  -9.209  0.00  0.00    +0.000 A 
ATOM     88  CD1 TYR A  12      43.591 -29.374  -9.051  0.00  0.00    +0.000 A 
ATOM     89  CD2 TYR A  12      45.919 -29.814  -8.788  0.00  0.00    +0.000 A 
ATOM     90  CE1 TYR A  12      43.287 -30.596  -8.489  0.00  0.00    +0.000 A 
ATOM     91  CE2 TYR A  12      45.627 -31.046  -8.223  0.00  0.00    +0.000 A 
ATOM     92  CZ  TYR A  12      44.307 -31.429  -8.073  0.00  0.00    +0.000 A 
ATOM     93  OH  TYR A  12      44.006 -32.639  -7.489  0.00  0.00    +0.000 OA
ATOM     94  HH  TYR A  12      43.103 -32.805  -7.120  0.00  0.00    +0.000 HD
ATOM     95  N   GLU A  13      46.754 -24.775  -9.459  0.00  0.00    +0.000 N 
ATOM     96  H   GLU A  13      47.395 -25.389  -8.980  0.00  0.00    +0.000 HD
ATOM     97  CA  GLU A  13      47.333 -23.883 -10.451  0.00  0.00    +0.000 C 
ATOM     98  C   GLU A  13      47.777 -24.727 -11.629  0.00  0.00    +0.000 C 
ATOM     99  O   GLU A  13      48.254 -25.850 -11.457  0.00  0.00    +0.000 OA
ATOM    100  CB  GLU A  13      48.541 -23.109  -9.908  0.00  0.00    +0.000 C 
ATOM    101  CG  GLU A  13      49.191 -22.231 -10.989  0.00  0.00    +0.000 C 
ATOM    102  CD  GLU A  13      50.300 -21.316 -10.476  0.00  0.00    +0.000 C 
ATOM    103  OE1 GLU A  13      50.402 -21.104  -9.249  0.00  0.00    +0.000 OA
ATOM    104  OE2 GLU A  13      51.072 -20.802 -11.315  0.00  0.00    +0.000 OA
ATOM    105  N   GLY A  14      47.606 -24.179 -12.825  0.00  0.00    +0.000 N 
ATOM    106  H   GLY A  14      47.263 -23.223 -12.896  0.00  0.00    +0.000 HD
ATOM    107  CA  GLY A  14      48.047 -24.849 -14.030  0.00  0.00    +0.000 C 
ATOM    108  C   GLY A  14      48.214 -23.831 -15.138  0.00  0.00    +0.000 C 
ATOM    109  O   GLY A  14      48.187 -22.625 -14.884  0.00  0.00    +0.000 OA
ATOM    110  N   NME A  15      48.393 -24.309 -16.366  0.00  0.00    +0.000 N 
ATOM    111  H   NME A  15      48.424 -25.307 -16.505  0.00  0.00    +0.000 HD
ATOM    112  C   NME A  15      48.505 -23.420 -17.512  0.00  0.00    +0.000 C 
TER 
REMARK  Name = /home/xianyang/aimnet2_score_pipelines/work/L1234-fixed-receptor-eint-20260921/L1/P08922/prepared.pdb
REMARK                            x       y       z     vdW  Elec       q    Type
REMARK                         _______ _______ _______ _____ _____    ______ ____
ATOM      1  CH3 ACE B   1      48.809 -19.436 -15.917  0.00  0.00    +0.000 C 
ATOM      2  C   ACE B   1      47.341 -19.213 -15.556  0.00  0.00    +0.000 C 
ATOM      3  O   ACE B   1      46.785 -18.140 -15.797  0.00  0.00    +0.000 OA
ATOM      4  N   VAL B   2      46.718 -20.243 -14.991  0.00  0.00    +0.000 N 
ATOM      5  H   VAL B   2      47.254 -21.074 -14.757  0.00  0.00    +0.000 HD
ATOM      6  CA  VAL B   2      45.316 -20.180 -14.590  0.00  0.00    +0.000 C 
ATOM      7  C   VAL B   2      45.132 -20.912 -13.277  0.00  0.00    +0.000 C 
ATOM      8  O   VAL B   2      46.032 -21.611 -12.824  0.00  0.00    +0.000 OA
ATOM      9  CB  VAL B   2      44.397 -20.846 -15.636  0.00  0.00    +0.000 C 
ATOM     10  CG1 VAL B   2      44.381 -20.029 -16.923  0.00  0.00    +0.000 C 
ATOM     11  CG2 VAL B   2      44.880 -22.264 -15.907  0.00  0.00    +0.000 C 
ATOM     12  N   ALA B   3      43.965 -20.746 -12.665  0.00  0.00    +0.000 N 
ATOM     13  H   ALA B   3      43.259 -20.154 -13.089  0.00  0.00    +0.000 HD
ATOM     14  CA  ALA B   3      43.543 -21.642 -11.587  0.00  0.00    +0.000 C 
ATOM     15  C   ALA B   3      42.468 -22.581 -12.121  0.00  0.00    +0.000 C 
ATOM     16  O   ALA B   3      41.750 -22.241 -13.056  0.00  0.00    +0.000 OA
ATOM     17  CB  ALA B   3      42.999 -20.841 -10.409  0.00  0.00    +0.000 C 
ATOM     18  N   VAL B   4      42.360 -23.763 -11.532  0.00  0.00    +0.000 N 
ATOM     19  H   VAL B   4      43.045 -24.033 -10.834  0.00  0.00    +0.000 HD
ATOM     20  CA  VAL B   4      41.379 -24.741 -11.993  0.00  0.00    +0.000 C 
ATOM     21  C   VAL B   4      40.572 -25.324 -10.842  0.00  0.00    +0.000 C 
ATOM     22  O   VAL B   4      41.117 -25.959  -9.944  0.00  0.00    +0.000 OA
ATOM     23  CB  VAL B   4      42.055 -25.910 -12.741  0.00  0.00    +0.000 C 
ATOM     24  CG1 VAL B   4      40.992 -26.832 -13.322  0.00  0.00    +0.000 C 
ATOM     25  CG2 VAL B   4      42.977 -25.376 -13.833  0.00  0.00    +0.000 C 
ATOM     26  N   LYS B   5      39.265 -25.109 -10.882  0.00  0.00    +0.000 N 
ATOM     27  H   LYS B   5      38.874 -24.614 -11.677  0.00  0.00    +0.000 HD
ATOM     28  CA  LYS B   5      38.366 -25.682  -9.891  0.00  0.00    +0.000 C 
ATOM     29  C   LYS B   5      37.815 -26.996 -10.456  0.00  0.00    +0.000 C 
ATOM     30  O   LYS B   5      37.374 -27.047 -11.600  0.00  0.00    +0.000 OA
ATOM     31  CB  LYS B   5      37.232 -24.688  -9.607  0.00  0.00    +0.000 C 
ATOM     32  CG  LYS B   5      36.437 -24.951  -8.339  0.00  0.00    +0.000 C 
ATOM     33  CD  LYS B   5      35.421 -23.840  -8.104  0.00  0.00    +0.000 C 
ATOM     34  CE  LYS B   5      34.486 -24.169  -6.945  0.00  0.00    +0.000 C 
ATOM     35  NZ  LYS B   5      35.186 -24.174  -5.623  0.00  0.00    +0.000 N 
ATOM     36  HZ1 LYS B   5      36.128 -24.522  -5.714  0.00  0.00    +0.000 HD
ATOM     37  HZ2 LYS B   5      34.689 -24.748  -4.960  0.00  0.00    +0.000 HD
ATOM     38  HZ3 LYS B   5      35.211 -23.236  -5.233  0.00  0.00    +0.000 HD
ATOM     39  N   THR B   6      37.857 -28.059  -9.661  0.00  0.00    +0.000 N 
ATOM     40  H   THR B   6      38.303 -27.990  -8.754  0.00  0.00    +0.000 HD
ATOM     41  CA  THR B   6      37.514 -29.388 -10.155  0.00  0.00    +0.000 C 
ATOM     42  C   THR B   6      36.326 -29.962  -9.404  0.00  0.00    +0.000 C 
ATOM     43  O   THR B   6      36.142 -29.700  -8.216  0.00  0.00    +0.000 OA
ATOM     44  CB  THR B   6      38.669 -30.387  -9.981  0.00  0.00    +0.000 C 
ATOM     45  OG1 THR B   6      38.815 -30.694  -8.591  0.00  0.00    +0.000 OA
ATOM     46  HG1 THR B   6      39.220 -29.927  -8.152  0.00  0.00    +0.000 HD
ATOM     47  CG2 THR B   6      39.966 -29.810 -10.510  0.00  0.00    +0.000 C 
ATOM     48  N   NME B   7      35.526 -30.757 -10.103  0.00  0.00    +0.000 N 
ATOM     49  H   NME B   7      35.724 -30.931 -11.075  0.00  0.00    +0.000 HD
ATOM     50  C   NME B   7      34.444 -31.479  -9.461  0.00  0.00    +0.000 C 
TER 
REMARK  Name = /home/xianyang/aimnet2_score_pipelines/work/L1234-fixed-receptor-eint-20260921/L1/P08922/prepared.pdb
REMARK                            x       y       z     vdW  Elec       q    Type
REMARK                         _______ _______ _______ _____ _____    ______ ____
ATOM      1  CH3 ACE C   1      36.162  -6.717  -9.315  0.00  0.00    +0.000 C 
ATOM      2  C   ACE C   1      35.401  -8.007  -9.044  0.00  0.00    +0.000 C 
ATOM      3  O   ACE C   1      35.075  -8.330  -7.896  0.00  0.00    +0.000 OA
ATOM      4  N   ILE C   2      35.132  -8.739 -10.121  0.00  0.00    +0.000 N 
ATOM      5  H   ILE C   2      35.405  -8.402 -11.030  0.00  0.00    +0.000 HD
ATOM      6  CA  ILE C   2      34.507 -10.050 -10.040  0.00  0.00    +0.000 C 
ATOM      7  C   ILE C   2      35.422 -11.036 -10.757  0.00  0.00    +0.000 C 
ATOM      8  O   ILE C   2      35.766 -10.836 -11.925  0.00  0.00    +0.000 OA
ATOM      9  CB  ILE C   2      33.126 -10.039 -10.740  0.00  0.00    +0.000 C 
ATOM     10  CG1 ILE C   2      32.222  -8.983 -10.097  0.00  0.00    +0.000 C 
ATOM     11  CG2 ILE C   2      32.487 -11.417 -10.658  0.00  0.00    +0.000 C 
ATOM     12  CD1 ILE C   2      31.862  -9.287  -8.662  0.00  0.00    +0.000 C 
ATOM     13  N   LEU C   3      35.813 -12.097 -10.056  0.00  0.00    +0.000 N 
ATOM     14  H   LEU C   3      35.444 -12.242  -9.122  0.00  0.00    +0.000 HD
ATOM     15  CA  LEU C   3      36.697 -13.108 -10.620  0.00  0.00    +0.000 C 
ATOM     16  C   LEU C   3      36.249 -13.544 -12.017  0.00  0.00    +0.000 C 
ATOM     17  O   LEU C   3      35.072 -13.833 -12.240  0.00  0.00    +0.000 OA
ATOM     18  CB  LEU C   3      36.754 -14.329  -9.696  0.00  0.00    +0.000 C 
ATOM     19  CG  LEU C   3      37.703 -15.442 -10.165  0.00  0.00    +0.000 C 
ATOM     20  CD1 LEU C   3      39.129 -14.886 -10.222  0.00  0.00    +0.000 C 
ATOM     21  CD2 LEU C   3      37.619 -16.653  -9.224  0.00  0.00    +0.000 C 
ATOM     22  N   LYS C   4      37.191 -13.595 -12.954  0.00  0.00    +0.000 N 
ATOM     23  H   LYS C   4      38.135 -13.293 -12.730  0.00  0.00    +0.000 HD
ATOM     24  CA  LYS C   4      36.900 -14.073 -14.308  0.00  0.00    +0.000 C 
ATOM     25  C   LYS C   4      36.909 -15.596 -14.389  0.00  0.00    +0.000 C 
ATOM     26  O   LYS C   4      37.843 -16.248 -13.923  0.00  0.00    +0.000 OA
ATOM     27  CB  LYS C   4      37.926 -13.537 -15.309  0.00  0.00    +0.000 C 
ATOM     28  CG  LYS C   4      37.766 -12.078 -15.687  0.00  0.00    +0.000 C 
ATOM     29  CD  LYS C   4      38.809 -11.706 -16.719  0.00  0.00    +0.000 C 
ATOM     30  CE  LYS C   4      38.913 -10.205 -16.914  0.00  0.00    +0.000 C 
ATOM     31  NZ  LYS C   4      40.197  -9.859 -17.602  0.00  0.00    +0.000 N 
ATOM     32  HZ1 LYS C   4      40.987 -10.181 -17.053  0.00  0.00    +0.000 HD
ATOM     33  HZ2 LYS C   4      40.243 -10.315 -18.503  0.00  0.00    +0.000 HD
ATOM     34  HZ3 LYS C   4      40.282  -8.860 -17.741  0.00  0.00    +0.000 HD
ATOM     35  N   NME C   5      35.865 -16.156 -14.986  0.00  0.00    +0.000 N 
ATOM     36  H   NME C   5      35.091 -15.567 -15.247  0.00  0.00    +0.000 HD
ATOM     37  C   NME C   5      35.887 -17.546 -15.430  0.00  0.00    +0.000 C 
TER 
REMARK  Name = /home/xianyang/aimnet2_score_pipelines/work/L1234-fixed-receptor-eint-20260921/L1/P08922/prepared.pdb
REMARK                            x       y       z     vdW  Elec       q    Type
REMARK                         _______ _______ _______ _____ _____    ______ ____
ATOM      1  CH3 ACE D   1      36.127 -24.495 -14.058  0.00  0.00    +0.000 C 
ATOM      2  C   ACE D   1      37.472 -23.778 -14.057  0.00  0.00    +0.000 C 
ATOM      3  O   ACE D   1      38.219 -23.848 -13.084  0.00  0.00    +0.000 OA
ATOM      4  N   ILE D   2      37.782 -23.108 -15.159  0.00  0.00    +0.000 N 
ATOM      5  H   ILE D   2      37.111 -23.043 -15.907  0.00  0.00    +0.000 HD
ATOM      6  CA  ILE D   2      39.081 -22.470 -15.324  0.00  0.00    +0.000 C 
ATOM      7  C   ILE D   2      38.977 -20.982 -15.006  0.00  0.00    +0.000 C 
ATOM      8  O   ILE D   2      38.322 -20.221 -15.730  0.00  0.00    +0.000 OA
ATOM      9  CB  ILE D   2      39.610 -22.624 -16.774  0.00  0.00    +0.000 C 
ATOM     10  CG1 ILE D   2      39.711 -24.111 -17.146  0.00  0.00    +0.000 C 
ATOM     11  CG2 ILE D   2      40.961 -21.948 -16.907  0.00  0.00    +0.000 C 
ATOM     12  CD1 ILE D   2      40.365 -24.977 -16.075  0.00  0.00    +0.000 C 
ATOM     13  N   LEU D   3      39.636 -20.579 -13.922  0.00  0.00    +0.000 N 
ATOM     14  H   LEU D   3      40.260 -21.229 -13.456  0.00  0.00    +0.000 HD
ATOM     15  CA  LEU D   3      39.568 -19.208 -13.431  0.00  0.00    +0.000 C 
ATOM     16  C   LEU D   3      40.902 -18.483 -13.636  0.00  0.00    +0.000 C 
ATOM     17  O   LEU D   3      41.972 -19.098 -13.621  0.00  0.00    +0.000 OA
ATOM     18  CB  LEU D   3      39.220 -19.220 -11.946  0.00  0.00    +0.000 C 
ATOM     19  CG  LEU D   3      38.023 -20.078 -11.541  0.00  0.00    +0.000 C 
ATOM     20  CD1 LEU D   3      38.138 -20.476 -10.076  0.00  0.00    +0.000 C 
ATOM     21  CD2 LEU D   3      36.748 -19.309 -11.800  0.00  0.00    +0.000 C 
ATOM     22  N   GLU D   4      40.840 -17.171 -13.818  0.00  0.00    +0.000 N 
ATOM     23  H   GLU D   4      39.940 -16.705 -13.772  0.00  0.00    +0.000 HD
ATOM     24  CA  GLU D   4      42.062 -16.387 -13.843  0.00  0.00    +0.000 C 
ATOM     25  C   GLU D   4      42.799 -16.627 -12.526  0.00  0.00    +0.000 C 
ATOM     26  O   GLU D   4      42.180 -16.735 -11.457  0.00  0.00    +0.000 OA
ATOM     27  CB  GLU D   4      41.745 -14.902 -14.006  0.00  0.00    +0.000 C 
ATOM     28  CG  GLU D   4      41.058 -14.280 -12.809  0.00  0.00    +0.000 C 
ATOM     29  CD  GLU D   4      40.768 -12.801 -13.009  0.00  0.00    +0.000 C 
ATOM     30  OE1 GLU D   4      41.699 -12.058 -13.375  0.00  0.00    +0.000 OA
ATOM     31  OE2 GLU D   4      39.609 -12.382 -12.804  0.00  0.00    +0.000 OA
ATOM     32  N   LEU D   5      44.120 -16.733 -12.607  0.00  0.00    +0.000 N 
ATOM     33  H   LEU D   5      44.590 -16.590 -13.488  0.00  0.00    +0.000 HD
ATOM     34  CA  LEU D   5      44.921 -16.973 -11.418  0.00  0.00    +0.000 C 
ATOM     35  C   LEU D   5      45.087 -15.675 -10.626  0.00  0.00    +0.000 C 
ATOM     36  O   LEU D   5      45.420 -14.627 -11.187  0.00  0.00    +0.000 OA
ATOM     37  CB  LEU D   5      46.293 -17.525 -11.806  0.00  0.00    +0.000 C 
ATOM     38  CG  LEU D   5      47.148 -17.992 -10.629  0.00  0.00    +0.000 C 
ATOM     39  CD1 LEU D   5      46.447 -19.151  -9.918  0.00  0.00    +0.000 C 
ATOM     40  CD2 LEU D   5      48.522 -18.417 -11.137  0.00  0.00    +0.000 C 
ATOM     41  N   MET D   6      44.829 -15.755  -9.325  0.00  0.00    +0.000 N 
ATOM     42  H   MET D   6      44.514 -16.630  -8.941  0.00  0.00    +0.000 HD
ATOM     43  CA  MET D   6      45.029 -14.624  -8.427  0.00  0.00    +0.000 C 
ATOM     44  C   MET D   6      46.152 -14.990  -7.474  0.00  0.00    +0.000 C 
ATOM     45  O   MET D   6      45.924 -15.589  -6.430  0.00  0.00    +0.000 OA
ATOM     46  CB  MET D   6      43.741 -14.330  -7.650  0.00  0.00    +0.000 C 
ATOM     47  CG  MET D   6      42.555 -14.043  -8.553  0.00  0.00    +0.000 C 
ATOM     48  SD  MET D   6      42.745 -12.484  -9.454  0.00  0.00    +0.000 S 
ATOM     49  CE  MET D   6      42.341 -11.315  -8.157  0.00  0.00    +0.000 C 
ATOM     50  N   GLU D   7      47.374 -14.633  -7.841  0.00  0.00    +0.000 N 
ATOM     51  H   GLU D   7      47.507 -14.185  -8.738  0.00  0.00    +0.000 HD
ATOM     52  CA  GLU D   7      48.541 -15.196  -7.179  0.00  0.00    +0.000 C 
ATOM     53  C   GLU D   7      48.693 -14.763  -5.728  0.00  0.00    +0.000 C 
ATOM     54  O   GLU D   7      49.514 -15.311  -4.988  0.00  0.00    +0.000 OA
ATOM     55  CB  GLU D   7      49.796 -14.854  -7.975  0.00  0.00    +0.000 C 
ATOM     56  CG  GLU D   7      49.835 -15.548  -9.328  0.00  0.00    +0.000 C 
ATOM     57  CD  GLU D   7      50.840 -14.937 -10.283  0.00  0.00    +0.000 C 
ATOM     58  OE1 GLU D   7      51.926 -14.517  -9.824  0.00  0.00    +0.000 OA
ATOM     59  OE2 GLU D   7      50.543 -14.880 -11.497  0.00  0.00    +0.000 OA
ATOM     60  N   GLY D   8      47.892 -13.792  -5.310  0.00  0.00    +0.000 N 
ATOM     61  H   GLY D   8      47.181 -13.408  -5.921  0.00  0.00    +0.000 HD
ATOM     62  CA  GLY D   8      47.894 -13.413  -3.909  0.00  0.00    +0.000 C 
ATOM     63  C   GLY D   8      47.069 -14.337  -3.036  0.00  0.00    +0.000 C 
ATOM     64  O   GLY D   8      47.036 -14.179  -1.816  0.00  0.00    +0.000 OA
ATOM     65  N   GLY D   9      46.394 -15.304  -3.651  0.00  0.00    +0.000 N 
ATOM     66  H   GLY D   9      46.400 -15.358  -4.662  0.00  0.00    +0.000 HD
ATOM     67  CA  GLY D   9      45.540 -16.199  -2.886  0.00  0.00    +0.000 C 
ATOM     68  C   GLY D   9      44.318 -15.487  -2.342  0.00  0.00    +0.000 C 
ATOM     69  O   GLY D   9      43.953 -14.418  -2.832  0.00  0.00    +0.000 OA
ATOM     70  N   ASP D  10      43.682 -16.066  -1.327  0.00  0.00    +0.000 N 
ATOM     71  H   ASP D  10      44.085 -16.847  -0.816  0.00  0.00    +0.000 HD
ATOM     72  CA  ASP D  10      42.481 -15.461  -0.766  0.00  0.00    +0.000 C 
ATOM     73  C   ASP D  10      42.835 -14.245   0.084  0.00  0.00    +0.000 C 
ATOM     74  O   ASP D  10      43.869 -14.218   0.734  0.00  0.00    +0.000 OA
ATOM     75  CB  ASP D  10      41.698 -16.475   0.077  0.00  0.00    +0.000 C 
ATOM     76  CG  ASP D  10      42.485 -16.984   1.270  0.00  0.00    +0.000 C 
ATOM     77  OD1 ASP D  10      43.472 -17.714   1.058  0.00  0.00    +0.000 OA
ATOM     78  OD2 ASP D  10      42.114 -16.660   2.421  0.00  0.00    +0.000 OA
ATOM     79  N   LEU D  11      41.961 -13.244   0.064  0.00  0.00    +0.000 N 
ATOM     80  H   LEU D  11      41.098 -13.385  -0.449  0.00  0.00    +0.000 HD
ATOM     81  CA  LEU D  11      42.177 -12.004   0.790  0.00  0.00    +0.000 C 
ATOM     82  C   LEU D  11      42.613 -12.247   2.242  0.00  0.00    +0.000 C 
ATOM     83  O   LEU D  11      43.556 -11.619   2.726  0.00  0.00    +0.000 OA
ATOM     84  CB  LEU D  11      40.892 -11.180   0.777  0.00  0.00    +0.000 C 
ATOM     85  CG  LEU D  11      40.948  -9.651   0.761  0.00  0.00    +0.000 C 
ATOM     86  CD1 LEU D  11      39.803  -9.117   1.601  0.00  0.00    +0.000 C 
ATOM     87  CD2 LEU D  11      42.279  -9.134   1.261  0.00  0.00    +0.000 C 
ATOM     88  N   NME D  12      41.925 -13.152   2.932  0.00  0.00    +0.000 N 
ATOM     89  H   NME D  12      41.315 -13.781   2.428  0.00  0.00    +0.000 HD
ATOM     90  C   NME D  12      42.184 -13.370   4.354  0.00  0.00    +0.000 C 
TER 
REMARK  Name = /home/xianyang/aimnet2_score_pipelines/work/L1234-fixed-receptor-eint-20260921/L1/P08922/prepared.pdb
REMARK                            x       y       z     vdW  Elec       q    Type
REMARK                         _______ _______ _______ _____ _____    ______ ____
ATOM      1  CH3 ACE E   1      33.953 -12.497   3.659  0.00  0.00    +0.000 C 
ATOM      2  C   ACE E   1      35.314 -12.564   2.974  0.00  0.00    +0.000 C 
ATOM      3  O   ACE E   1      35.397 -12.906   1.798  0.00  0.00    +0.000 OA
ATOM      4  N   ALA E   2      36.376 -12.230   3.694  0.00  0.00    +0.000 N 
ATOM      5  H   ALA E   2      36.250 -11.880   4.631  0.00  0.00    +0.000 HD
ATOM      6  CA  ALA E   2      37.697 -12.113   3.068  0.00  0.00    +0.000 C 
ATOM      7  C   ALA E   2      38.160 -13.460   2.502  0.00  0.00    +0.000 C 
ATOM      8  O   ALA E   2      38.831 -13.501   1.479  0.00  0.00    +0.000 OA
ATOM      9  CB  ALA E   2      38.731 -11.572   4.082  0.00  0.00    +0.000 C 
ATOM     10  N   ARG E   3      37.792 -14.555   3.167  0.00  0.00    +0.000 N 
ATOM     11  H   ARG E   3      37.291 -14.446   4.032  0.00  0.00    +0.000 HD
ATOM     12  CA  ARG E   3      38.117 -15.899   2.677  0.00  0.00    +0.000 C 
ATOM     13  C   ARG E   3      37.541 -16.113   1.275  0.00  0.00    +0.000 C 
ATOM     14  O   ARG E   3      38.005 -16.975   0.527  0.00  0.00    +0.000 OA
ATOM     15  CB  ARG E   3      37.556 -16.977   3.626  0.00  0.00    +0.000 C 
ATOM     16  CG  ARG E   3      36.079 -17.309   3.392  0.00  0.00    +0.000 C 
ATOM     17  CD  ARG E   3      35.521 -18.313   4.411  0.00  0.00    +0.000 C 
ATOM     18  NE  ARG E   3      35.025 -17.635   5.602  0.00  0.00    +0.000 N 
ATOM     19  HE  ARG E   3      35.674 -17.500   6.359  0.00  0.00    +0.000 HD
ATOM     20  CZ  ARG E   3      33.775 -17.210   5.765  0.00  0.00    +0.000 C 
ATOM     21  NH1 ARG E   3      32.867 -17.396   4.815  0.00  0.00    +0.000 N 
ATOM     22 HH11 ARG E   3      31.929 -17.062   4.923  0.00  0.00    +0.000 HD
ATOM     23 HH12 ARG E   3      33.149 -17.845   3.960  0.00  0.00    +0.000 HD
ATOM     24  NH2 ARG E   3      33.439 -16.570   6.873  0.00  0.00    +0.000 N 
ATOM     25 HH21 ARG E   3      32.482 -16.304   7.022  0.00  0.00    +0.000 HD
ATOM     26 HH22 ARG E   3      34.109 -16.452   7.612  0.00  0.00    +0.000 HD
ATOM     27  N   ASN E   4      36.533 -15.322   0.917  0.00  0.00    +0.000 N 
ATOM     28  H   ASN E   4      36.239 -14.567   1.516  0.00  0.00    +0.000 HD
ATOM     29  CA  ASN E   4      35.867 -15.486  -0.372  0.00  0.00    +0.000 C 
ATOM     30  C   ASN E   4      36.271 -14.475  -1.440  0.00  0.00    +0.000 C 
ATOM     31  O   ASN E   4      35.716 -14.476  -2.528  0.00  0.00    +0.000 OA
ATOM     32  CB  ASN E   4      34.356 -15.456  -0.174  0.00  0.00    +0.000 C 
ATOM     33  CG  ASN E   4      33.859 -16.651   0.623  0.00  0.00    +0.000 C 
ATOM     34  OD1 ASN E   4      34.510 -17.699   0.661  0.00  0.00    +0.000 OA
ATOM     35  ND2 ASN E   4      32.709 -16.497   1.269  0.00  0.00    +0.000 N 
ATOM     36 HD21 ASN E   4      32.171 -15.687   1.021  0.00  0.00    +0.000 HD
ATOM     37 HD22 ASN E   4      32.242 -17.375   1.417  0.00  0.00    +0.000 HD
ATOM     38  N   CYS E   5      37.244 -13.622  -1.127  0.00  0.00    +0.000 N 
ATOM     39  H   CYS E   5      37.717 -13.725  -0.237  0.00  0.00    +0.000 HD
ATOM     40  CA  CYS E   5      37.840 -12.721  -2.116  0.00  0.00    +0.000 C 
ATOM     41  C   CYS E   5      39.254 -13.147  -2.466  0.00  0.00    +0.000 C 
ATOM     42  O   CYS E   5      39.850 -13.954  -1.758  0.00  0.00    +0.000 OA
ATOM     43  CB  CYS E   5      37.885 -11.292  -1.581  0.00  0.00    +0.000 C 
ATOM     44  SG  CYS E   5      36.291 -10.709  -1.070  0.00  0.00    +0.000 S 
ATOM     45  HG  CYS E   5      36.691  -9.533  -0.576  0.00  0.00    +0.000 HD
ATOM     46  N   LEU E   6      39.792 -12.580  -3.546  0.00  0.00    +0.000 N 
ATOM     47  H   LEU E   6      39.225 -11.946  -4.099  0.00  0.00    +0.000 HD
ATOM     48  CA  LEU E   6      41.112 -12.967  -4.046  0.00  0.00    +0.000 C 
ATOM     49  C   LEU E   6      41.952 -11.756  -4.440  0.00  0.00    +0.000 C 
ATOM     50  O   LEU E   6      41.424 -10.762  -4.940  0.00  0.00    +0.000 OA
ATOM     51  CB  LEU E   6      40.969 -13.895  -5.260  0.00  0.00    +0.000 C 
ATOM     52  CG  LEU E   6      40.418 -15.317  -5.077  0.00  0.00    +0.000 C 
ATOM     53  CD1 LEU E   6      40.065 -15.890  -6.454  0.00  0.00    +0.000 C 
ATOM     54  CD2 LEU E   6      41.447 -16.210  -4.358  0.00  0.00    +0.000 C 
ATOM     55  N   VAL E   7      43.261 -11.860  -4.227  0.00  0.00    +0.000 N 
ATOM     56  H   VAL E   7      43.622 -12.717  -3.808  0.00  0.00    +0.000 HD
ATOM     57  CA  VAL E   7      44.211 -10.803  -4.566  0.00  0.00    +0.000 C 
ATOM     58  C   VAL E   7      45.071 -11.193  -5.767  0.00  0.00    +0.000 C 
ATOM     59  O   VAL E   7      45.591 -12.307  -5.820  0.00  0.00    +0.000 OA
ATOM     60  CB  VAL E   7      45.156 -10.511  -3.385  0.00  0.00    +0.000 C 
ATOM     61  CG1 VAL E   7      46.163  -9.423  -3.780  0.00  0.00    +0.000 C 
ATOM     62  CG2 VAL E   7      44.345 -10.113  -2.152  0.00  0.00    +0.000 C 
ATOM     63  N   NME E   8      45.248 -10.260  -6.704  0.00  0.00    +0.000 N 
ATOM     64  H   NME E   8      44.736  -9.388  -6.610  0.00  0.00    +0.000 HD
ATOM     65  C   NME E   8      45.895 -10.545  -7.986  0.00  0.00    +0.000 C 
TER 
REMARK  Name = /home/xianyang/aimnet2_score_pipelines/work/L1234-fixed-receptor-eint-20260921/L1/P08922/prepared.pdb
REMARK                            x       y       z     vdW  Elec       q    Type
REMARK                         _______ _______ _______ _____ _____    ______ ____
ATOM      1  CH3 ACE F   1      43.369  -5.750  -7.202  0.00  0.00    +0.000 C 
ATOM      2  C   ACE F   1      42.743  -6.973  -6.523  0.00  0.00    +0.000 C 
ATOM      3  O   ACE F   1      43.182  -8.104  -6.730  0.00  0.00    +0.000 OA
ATOM      4  N   VAL F   2      41.739  -6.735  -5.681  0.00  0.00    +0.000 N 
ATOM      5  H   VAL F   2      41.400  -5.792  -5.570  0.00  0.00    +0.000 HD
ATOM      6  CA  VAL F   2      40.931  -7.822  -5.144  0.00  0.00    +0.000 C 
ATOM      7  C   VAL F   2      39.589  -7.954  -5.859  0.00  0.00    +0.000 C 
ATOM      8  O   VAL F   2      38.992  -6.963  -6.284  0.00  0.00    +0.000 OA
ATOM      9  CB  VAL F   2      40.647  -7.654  -3.631  0.00  0.00    +0.000 C 
ATOM     10  CG1 VAL F   2      41.855  -8.060  -2.830  0.00  0.00    +0.000 C 
ATOM     11  CG2 VAL F   2      40.258  -6.219  -3.328  0.00  0.00    +0.000 C 
ATOM     12  N   LYS F   3      39.127  -9.196  -5.967  0.00  0.00    +0.000 N 
ATOM     13  H   LYS F   3      39.698  -9.949  -5.592  0.00  0.00    +0.000 HD
ATOM     14  CA  LYS F   3      37.866  -9.513  -6.614  0.00  0.00    +0.000 C 
ATOM     15  C   LYS F   3      37.066 -10.453  -5.723  0.00  0.00    +0.000 C 
ATOM     16  O   LYS F   3      37.642 -11.228  -4.963  0.00  0.00    +0.000 OA
ATOM     17  CB  LYS F   3      38.131 -10.182  -7.965  0.00  0.00    +0.000 C 
ATOM     18  CG  LYS F   3      39.099  -9.411  -8.825  0.00  0.00    +0.000 C 
ATOM     19  CD  LYS F   3      39.329 -10.071 -10.176  0.00  0.00    +0.000 C 
ATOM     20  CE  LYS F   3      40.212  -9.181 -11.066  0.00  0.00    +0.000 C 
ATOM     21  NZ  LYS F   3      39.984  -9.430 -12.509  0.00  0.00    +0.000 N 
ATOM     22  HZ1 LYS F   3      40.650  -8.954 -13.092  0.00  0.00    +0.000 HD
ATOM     23  HZ2 LYS F   3      40.123 -10.440 -12.679  0.00  0.00    +0.000 HD
ATOM     24  HZ3 LYS F   3      39.030  -9.234 -12.755  0.00  0.00    +0.000 HD
ATOM     25  N   ILE F   4      35.743 -10.370  -5.811  0.00  0.00    +0.000 N 
ATOM     26  H   ILE F   4      35.346  -9.692  -6.454  0.00  0.00    +0.000 HD
ATOM     27  CA  ILE F   4      34.868 -11.368  -5.211  0.00  0.00    +0.000 C 
ATOM     28  C   ILE F   4      34.972 -12.621  -6.062  0.00  0.00    +0.000 C 
ATOM     29  O   ILE F   4      34.908 -12.553  -7.292  0.00  0.00    +0.000 OA
ATOM     30  CB  ILE F   4      33.394 -10.902  -5.200  0.00  0.00    +0.000 C 
ATOM     31  CG1 ILE F   4      33.292  -9.502  -4.569  0.00  0.00    +0.000 C 
ATOM     32  CG2 ILE F   4      32.545 -11.907  -4.408  0.00  0.00    +0.000 C 
ATOM     33  CD1 ILE F   4      31.886  -8.930  -4.549  0.00  0.00    +0.000 C 
ATOM     34  N   GLY F   5      35.137 -13.769  -5.416  0.00  0.00    +0.000 N 
ATOM     35  H   GLY F   5      35.208 -13.791  -4.402  0.00  0.00    +0.000 HD
ATOM     36  CA  GLY F   5      35.548 -14.936  -6.165  0.00  0.00    +0.000 C 
ATOM     37  C   GLY F   5      34.936 -16.267  -5.798  0.00  0.00    +0.000 C 
ATOM     38  O   GLY F   5      35.423 -17.296  -6.263  0.00  0.00    +0.000 OA
ATOM     39  N   ASP F   6      33.894 -16.277  -4.973  0.00  0.00    +0.000 N 
ATOM     40  H   ASP F   6      33.564 -15.424  -4.552  0.00  0.00    +0.000 HD
ATOM     41  CA  ASP F   6      33.222 -17.536  -4.653  0.00  0.00    +0.000 C 
ATOM     42  C   ASP F   6      31.717 -17.375  -4.478  0.00  0.00    +0.000 C 
ATOM     43  O   ASP F   6      31.242 -16.977  -3.414  0.00  0.00    +0.000 OA
ATOM     44  CB  ASP F   6      33.813 -18.150  -3.390  0.00  0.00    +0.000 C 
ATOM     45  CG  ASP F   6      33.059 -19.391  -2.943  0.00  0.00    +0.000 C 
ATOM     46  OD1 ASP F   6      32.000 -19.232  -2.292  0.00  0.00    +0.000 OA
ATOM     47  OD2 ASP F   6      33.521 -20.518  -3.246  0.00  0.00    +0.000 OA
ATOM     48  N   PHE F   7      30.971 -17.717  -5.522  0.00  0.00    +0.000 N 
ATOM     49  H   PHE F   7      31.428 -18.067  -6.346  0.00  0.00    +0.000 HD
ATOM     50  CA  PHE F   7      29.554 -17.399  -5.588  0.00  0.00    +0.000 C 
ATOM     51  C   PHE F   7      28.688 -18.620  -5.332  0.00  0.00    +0.000 C 
ATOM     52  O   PHE F   7      27.580 -18.722  -5.855  0.00  0.00    +0.000 OA
ATOM     53  CB  PHE F   7      29.220 -16.808  -6.960  0.00  0.00    +0.000 C 
ATOM     54  CG  PHE F   7      30.094 -15.648  -7.345  0.00  0.00    +0.000 A 
ATOM     55  CD1 PHE F   7      31.320 -15.860  -7.949  0.00  0.00    +0.000 A 
ATOM     56  CD2 PHE F   7      29.698 -14.350  -7.086  0.00  0.00    +0.000 A 
ATOM     57  CE1 PHE F   7      32.134 -14.796  -8.285  0.00  0.00    +0.000 A 
ATOM     58  CE2 PHE F   7      30.509 -13.284  -7.418  0.00  0.00    +0.000 A 
ATOM     59  CZ  PHE F   7      31.728 -13.507  -8.018  0.00  0.00    +0.000 A 
ATOM     60  N   NME F   8      29.197 -19.544  -4.527  0.00  0.00    +0.000 N 
ATOM     61  H   NME F   8      30.068 -19.355  -4.035  0.00  0.00    +0.000 HD
ATOM     62  C   NME F   8      28.460 -20.762  -4.243  0.00  0.00    +0.000 C 
TER 
