REMARK  Name = /home/xianyang/aimnet2_score_pipelines/work/L1234-fixed-receptor-eint-20260921/L3/Q92830/prepared.pdb
REMARK                            x       y       z     vdW  Elec       q    Type
REMARK                         _______ _______ _______ _____ _____    ______ ____
ATOM      1  CH3 ACE A   1      -9.982  -5.948   4.002  0.00  0.00    +0.000 C 
ATOM      2  C   ACE A   1     -10.958  -6.905   4.638  0.00  0.00    +0.000 C 
ATOM      3  O   ACE A   1     -12.128  -6.539   4.835  0.00  0.00    +0.000 OA
ATOM      4  N   ALA A   2     -10.530  -8.122   4.909  0.00  0.00    +0.000 N 
ATOM      5  H   ALA A   2      -9.595  -8.386   4.645  0.00  0.00    +0.000 HD
ATOM      6  CA  ALA A   2     -11.387  -9.110   5.573  0.00  0.00    +0.000 C 
ATOM      7  C   ALA A   2     -11.627  -8.810   7.046  0.00  0.00    +0.000 C 
ATOM      8  O   ALA A   2     -12.516  -9.443   7.639  0.00  0.00    +0.000 OA
ATOM      9  CB  ALA A   2     -10.832 -10.507   5.392  0.00  0.00    +0.000 C 
ATOM     10  N   TRP A   3     -10.834  -7.939   7.680  0.00  0.00    +0.000 N 
ATOM     11  H   TRP A   3     -10.156  -7.407   7.161  0.00  0.00    +0.000 HD
ATOM     12  CA  TRP A   3     -10.858  -7.844   9.134  0.00  0.00    +0.000 C 
ATOM     13  C   TRP A   3     -12.224  -7.611   9.760  0.00  0.00    +0.000 C 
ATOM     14  O   TRP A   3     -12.456  -8.146  10.829  0.00  0.00    +0.000 OA
ATOM     15  CB  TRP A   3      -9.830  -6.751   9.614  0.00  0.00    +0.000 C 
ATOM     16  CG  TRP A   3     -10.118  -5.332   9.275  0.00  0.00    +0.000 A 
ATOM     17  CD1 TRP A   3      -9.587  -4.575   8.208  0.00  0.00    +0.000 A 
ATOM     18  CD2 TRP A   3     -10.964  -4.436   9.974  0.00  0.00    +0.000 A 
ATOM     19  NE1 TRP A   3     -10.117  -3.343   8.200  0.00  0.00    +0.000 N 
ATOM     20  HE1 TRP A   3      -9.923  -2.618   7.518  0.00  0.00    +0.000 HD
ATOM     21  CE2 TRP A   3     -10.938  -3.201   9.286  0.00  0.00    +0.000 A 
ATOM     22  CE3 TRP A   3     -11.744  -4.547  11.122  0.00  0.00    +0.000 A 
ATOM     23  CZ2 TRP A   3     -11.662  -2.092   9.710  0.00  0.00    +0.000 A 
ATOM     24  CZ3 TRP A   3     -12.478  -3.467  11.529  0.00  0.00    +0.000 A 
ATOM     25  CH2 TRP A   3     -12.443  -2.245  10.817  0.00  0.00    +0.000 A 
ATOM     26  N   PRO A   4     -13.169  -6.882   9.148  0.00  0.00    +0.000 N 
ATOM     27  CA  PRO A   4     -14.449  -6.721   9.850  0.00  0.00    +0.000 C 
ATOM     28  C   PRO A   4     -15.281  -7.969   9.841  0.00  0.00    +0.000 C 
ATOM     29  O   PRO A   4     -16.295  -8.035  10.560  0.00  0.00    +0.000 OA
ATOM     30  CB  PRO A   4     -15.143  -5.601   9.081  0.00  0.00    +0.000 C 
ATOM     31  CG  PRO A   4     -14.085  -4.924   8.281  0.00  0.00    +0.000 C 
ATOM     32  CD  PRO A   4     -13.080  -6.006   7.973  0.00  0.00    +0.000 C 
ATOM     33  N   PHE A   5     -14.956  -8.944   8.991  0.00  0.00    +0.000 N 
ATOM     34  H   PHE A   5     -14.105  -8.831   8.452  0.00  0.00    +0.000 HD
ATOM     35  CA  PHE A   5     -15.831 -10.039   8.610  0.00  0.00    +0.000 C 
ATOM     36  C   PHE A   5     -15.330 -11.386   9.059  0.00  0.00    +0.000 C 
ATOM     37  O   PHE A   5     -15.886 -12.391   8.673  0.00  0.00    +0.000 OA
ATOM     38  CB  PHE A   5     -16.008  -9.994   7.077  0.00  0.00    +0.000 C 
ATOM     39  CG  PHE A   5     -16.362  -8.621   6.540  0.00  0.00    +0.000 A 
ATOM     40  CD1 PHE A   5     -17.562  -8.031   6.859  0.00  0.00    +0.000 A 
ATOM     41  CD2 PHE A   5     -15.481  -7.865   5.757  0.00  0.00    +0.000 A 
ATOM     42  CE1 PHE A   5     -17.882  -6.783   6.455  0.00  0.00    +0.000 A 
ATOM     43  CE2 PHE A   5     -15.820  -6.585   5.321  0.00  0.00    +0.000 A 
ATOM     44  CZ  PHE A   5     -17.024  -6.060   5.653  0.00  0.00    +0.000 A 
ATOM     45  N   MET A   6     -14.259 -11.398   9.856  0.00  0.00    +0.000 N 
ATOM     46  H   MET A   6     -13.845 -10.521  10.139  0.00  0.00    +0.000 HD
ATOM     47  CA  MET A   6     -13.619 -12.653  10.205  0.00  0.00    +0.000 C 
ATOM     48  C   MET A   6     -14.421 -13.462  11.211  0.00  0.00    +0.000 C 
ATOM     49  O   MET A   6     -14.337 -14.695  11.200  0.00  0.00    +0.000 OA
ATOM     50  CB  MET A   6     -12.225 -12.357  10.767  0.00  0.00    +0.000 C 
ATOM     51  CG  MET A   6     -11.277 -11.798   9.792  0.00  0.00    +0.000 C 
ATOM     52  SD  MET A   6     -10.809 -12.933   8.511  0.00  0.00    +0.000 S 
ATOM     53  CE  MET A   6      -9.653 -13.998   9.344  0.00  0.00    +0.000 C 
ATOM     54  N   GLU A   7     -15.180 -12.807  12.099  0.00  0.00    +0.000 N 
ATOM     55  H   GLU A   7     -15.277 -11.804  12.027  0.00  0.00    +0.000 HD
ATOM     56  CA  GLU A   7     -15.921 -13.469  13.169  0.00  0.00    +0.000 C 
ATOM     57  C   GLU A   7     -17.280 -12.816  13.309  0.00  0.00    +0.000 C 
ATOM     58  O   GLU A   7     -17.473 -11.670  12.880  0.00  0.00    +0.000 OA
ATOM     59  CB  GLU A   7     -15.195 -13.395  14.517  0.00  0.00    +0.000 C 
ATOM     60  CG  GLU A   7     -13.858 -14.129  14.512  0.00  0.00    +0.000 C 
ATOM     61  CD  GLU A   7     -13.269 -14.137  15.906  0.00  0.00    +0.000 C 
ATOM     62  OE1 GLU A   7     -13.062 -13.022  16.470  0.00  0.00    +0.000 OA
ATOM     63  OE2 GLU A   7     -13.021 -15.234  16.411  0.00  0.00    +0.000 OA
ATOM     64  N   PRO A   8     -18.247 -13.469  13.965  0.00  0.00    +0.000 N 
ATOM     65  CA  PRO A   8     -19.584 -12.872  14.099  0.00  0.00    +0.000 C 
ATOM     66  C   PRO A   8     -19.578 -11.516  14.789  0.00  0.00    +0.000 C 
ATOM     67  O   PRO A   8     -18.832 -11.268  15.736  0.00  0.00    +0.000 OA
ATOM     68  CB  PRO A   8     -20.341 -13.897  14.929  0.00  0.00    +0.000 C 
ATOM     69  CG  PRO A   8     -19.636 -15.187  14.671  0.00  0.00    +0.000 C 
ATOM     70  CD  PRO A   8     -18.208 -14.844  14.492  0.00  0.00    +0.000 C 
ATOM     71  N   VAL A   9     -20.455 -10.638  14.333  0.00  0.00    +0.000 N 
ATOM     72  H   VAL A   9     -21.035 -10.870  13.544  0.00  0.00    +0.000 HD
ATOM     73  CA  VAL A   9     -20.641  -9.369  15.014  0.00  0.00    +0.000 C 
ATOM     74  C   VAL A   9     -21.087  -9.644  16.440  0.00  0.00    +0.000 C 
ATOM     75  O   VAL A   9     -21.909 -10.526  16.691  0.00  0.00    +0.000 OA
ATOM     76  CB  VAL A   9     -21.675  -8.513  14.264  0.00  0.00    +0.000 C 
ATOM     77  CG1 VAL A   9     -21.938  -7.205  14.998  0.00  0.00    +0.000 C 
ATOM     78  CG2 VAL A   9     -21.226  -8.217  12.843  0.00  0.00    +0.000 C 
ATOM     79  N   LYS A  10     -20.500  -8.929  17.388  0.00  0.00    +0.000 N 
ATOM     80  H   LYS A  10     -19.758  -8.267  17.126  0.00  0.00    +0.000 HD
ATOM     81  CA  LYS A  10     -20.887  -9.065  18.794  0.00  0.00    +0.000 C 
ATOM     82  C   LYS A  10     -22.000  -8.051  19.099  0.00  0.00    +0.000 C 
ATOM     83  O   LYS A  10     -21.999  -6.947  18.585  0.00  0.00    +0.000 OA
ATOM     84  CB  LYS A  10     -19.691  -8.823  19.724  0.00  0.00    +0.000 C 
ATOM     85  CG  LYS A  10     -18.568  -9.845  19.568  0.00  0.00    +0.000 C 
ATOM     86  CD  LYS A  10     -17.334  -9.396  20.262  0.00  0.00    +0.000 C 
ATOM     87  CE  LYS A  10     -16.367 -10.577  20.367  0.00  0.00    +0.000 C 
ATOM     88  NZ  LYS A  10     -16.953 -11.586  21.274  0.00  0.00    +0.000 N 
ATOM     89  HZ1 LYS A  10     -17.802 -11.947  20.863  0.00  0.00    +0.000 HD
ATOM     90  HZ2 LYS A  10     -17.149 -11.175  22.181  0.00  0.00    +0.000 HD
ATOM     91  HZ3 LYS A  10     -16.302 -12.357  21.381  0.00  0.00    +0.000 HD
ATOM     92  N   LYS A  11     -22.903  -8.415  20.006  0.00  0.00    +0.000 N 
ATOM     93  H   LYS A  11     -22.868  -9.344  20.391  0.00  0.00    +0.000 HD
ATOM     94  CA  LYS A  11     -23.933  -7.455  20.448  0.00  0.00    +0.000 C 
ATOM     95  C   LYS A  11     -23.324  -6.222  21.094  0.00  0.00    +0.000 C 
ATOM     96  O   LYS A  11     -23.892  -5.126  20.996  0.00  0.00    +0.000 OA
ATOM     97  CB  LYS A  11     -24.923  -8.171  21.377  0.00  0.00    +0.000 C 
ATOM     98  CG  LYS A  11     -25.887  -9.068  20.603  0.00  0.00    +0.000 C 
ATOM     99  CD  LYS A  11     -26.856  -9.754  21.509  0.00  0.00    +0.000 C 
ATOM    100  CE  LYS A  11     -28.009 -10.368  20.720  0.00  0.00    +0.000 C 
ATOM    101  NZ  LYS A  11     -27.792 -11.797  20.319  0.00  0.00    +0.000 N 
ATOM    102  HZ1 LYS A  11     -28.614 -12.168  19.863  0.00  0.00    +0.000 HD
ATOM    103  HZ2 LYS A  11     -27.571 -12.377  21.116  0.00  0.00    +0.000 HD
ATOM    104  HZ3 LYS A  11     -27.022 -11.859  19.657  0.00  0.00    +0.000 HD
ATOM    105  N   SER A  12     -22.131  -6.348  21.694  0.00  0.00    +0.000 N 
ATOM    106  H   SER A  12     -21.664  -7.237  21.751  0.00  0.00    +0.000 HD
ATOM    107  CA  SER A  12     -21.483  -5.164  22.240  0.00  0.00    +0.000 C 
ATOM    108  C   SER A  12     -20.992  -4.202  21.166  0.00  0.00    +0.000 C 
ATOM    109  O   SER A  12     -20.869  -2.997  21.428  0.00  0.00    +0.000 OA
ATOM    110  CB  SER A  12     -20.309  -5.570  23.126  0.00  0.00    +0.000 C 
ATOM    111  OG  SER A  12     -19.355  -6.351  22.405  0.00  0.00    +0.000 OA
ATOM    112  HG  SER A  12     -18.875  -5.761  21.816  0.00  0.00    +0.000 HD
ATOM    113  N   GLU A  13     -20.802  -4.696  19.942  0.00  0.00    +0.000 N 
ATOM    114  H   GLU A  13     -21.011  -5.668  19.763  0.00  0.00    +0.000 HD
ATOM    115  CA  GLU A  13     -20.415  -3.893  18.789  0.00  0.00    +0.000 C 
ATOM    116  C   GLU A  13     -21.606  -3.293  18.066  0.00  0.00    +0.000 C 
ATOM    117  O   GLU A  13     -21.513  -2.173  17.542  0.00  0.00    +0.000 OA
ATOM    118  CB  GLU A  13     -19.629  -4.759  17.789  0.00  0.00    +0.000 C 
ATOM    119  CG  GLU A  13     -18.336  -5.293  18.395  0.00  0.00    +0.000 C 
ATOM    120  CD  GLU A  13     -17.661  -6.421  17.623  0.00  0.00    +0.000 C 
ATOM    121  OE1 GLU A  13     -18.348  -7.137  16.856  0.00  0.00    +0.000 OA
ATOM    122  OE2 GLU A  13     -16.424  -6.632  17.897  0.00  0.00    +0.000 OA
ATOM    123  N   ALA A  14     -22.711  -3.975  18.075  0.00  0.00    +0.000 N 
ATOM    124  H   ALA A  14     -22.689  -4.897  18.490  0.00  0.00    +0.000 HD
ATOM    125  CA  ALA A  14     -23.922  -3.554  17.352  0.00  0.00    +0.000 C 
ATOM    126  C   ALA A  14     -25.119  -4.210  18.005  0.00  0.00    +0.000 C 
ATOM    127  O   ALA A  14     -25.470  -5.354  17.721  0.00  0.00    +0.000 OA
ATOM    128  CB  ALA A  14     -23.815  -3.939  15.895  0.00  0.00    +0.000 C 
ATOM    129  N   PRO A  15     -25.788  -3.525  18.944  0.00  0.00    +0.000 N 
ATOM    130  CA  PRO A  15     -26.649  -4.228  19.874  0.00  0.00    +0.000 C 
ATOM    131  C   PRO A  15     -27.928  -4.796  19.289  0.00  0.00    +0.000 C 
ATOM    132  O   PRO A  15     -28.476  -5.749  19.856  0.00  0.00    +0.000 OA
ATOM    133  CB  PRO A  15     -26.994  -3.153  20.909  0.00  0.00    +0.000 C 
ATOM    134  CG  PRO A  15     -26.010  -2.114  20.733  0.00  0.00    +0.000 C 
ATOM    135  CD  PRO A  15     -25.356  -2.195  19.392  0.00  0.00    +0.000 C 
ATOM    136  N   ASP A  16     -28.417  -4.238  18.203  0.00  0.00    +0.000 N 
ATOM    137  H   ASP A  16     -27.917  -3.479  17.746  0.00  0.00    +0.000 HD
ATOM    138  CA  ASP A  16     -29.598  -4.709  17.524  0.00  0.00    +0.000 C 
ATOM    139  C   ASP A  16     -29.270  -5.539  16.278  0.00  0.00    +0.000 C 
ATOM    140  O   ASP A  16     -30.153  -5.807  15.484  0.00  0.00    +0.000 OA
ATOM    141  CB  ASP A  16     -30.467  -3.544  17.104  0.00  0.00    +0.000 C 
ATOM    142  CG  ASP A  16     -29.811  -2.632  16.083  0.00  0.00    +0.000 C 
ATOM    143  OD1 ASP A  16     -28.560  -2.751  15.889  0.00  0.00    +0.000 OA
ATOM    144  OD2 ASP A  16     -30.508  -1.750  15.524  0.00  0.00    +0.000 OA
ATOM    145  N   TYR A  17     -28.022  -5.898  16.088  0.00  0.00    +0.000 N 
ATOM    146  H   TYR A  17     -27.308  -5.536  16.710  0.00  0.00    +0.000 HD
ATOM    147  CA  TYR A  17     -27.629  -6.522  14.828  0.00  0.00    +0.000 C 
ATOM    148  C   TYR A  17     -28.463  -7.756  14.505  0.00  0.00    +0.000 C 
ATOM    149  O   TYR A  17     -28.807  -7.970  13.331  0.00  0.00    +0.000 OA
ATOM    150  CB  TYR A  17     -26.139  -6.896  14.886  0.00  0.00    +0.000 C 
ATOM    151  CG  TYR A  17     -25.575  -7.287  13.533  0.00  0.00    +0.000 A 
ATOM    152  CD1 TYR A  17     -25.185  -6.311  12.657  0.00  0.00    +0.000 A 
ATOM    153  CD2 TYR A  17     -25.467  -8.594  13.162  0.00  0.00    +0.000 A 
ATOM    154  CE1 TYR A  17     -24.680  -6.645  11.387  0.00  0.00    +0.000 A 
ATOM    155  CE2 TYR A  17     -24.951  -8.955  11.928  0.00  0.00    +0.000 A 
ATOM    156  CZ  TYR A  17     -24.574  -7.982  11.048  0.00  0.00    +0.000 A 
ATOM    157  OH  TYR A  17     -24.079  -8.339   9.790  0.00  0.00    +0.000 OA
ATOM    158  HH  TYR A  17     -23.861  -7.550   9.303  0.00  0.00    +0.000 HD
ATOM    159  N   TYR A  18     -28.712  -8.615  15.503  0.00  0.00    +0.000 N 
ATOM    160  H   TYR A  18     -28.408  -8.354  16.425  0.00  0.00    +0.000 HD
ATOM    161  CA  TYR A  18     -29.363  -9.915  15.280  0.00  0.00    +0.000 C 
ATOM    162  C   TYR A  18     -30.871  -9.769  15.169  0.00  0.00    +0.000 C 
ATOM    163  O   TYR A  18     -31.562 -10.743  14.808  0.00  0.00    +0.000 OA
ATOM    164  CB  TYR A  18     -28.936 -10.891  16.347  0.00  0.00    +0.000 C 
ATOM    165  CG  TYR A  18     -27.465 -11.224  16.165  0.00  0.00    +0.000 A 
ATOM    166  CD1 TYR A  18     -27.085 -12.170  15.242  0.00  0.00    +0.000 A 
ATOM    167  CD2 TYR A  18     -26.477 -10.527  16.822  0.00  0.00    +0.000 A 
ATOM    168  CE1 TYR A  18     -25.743 -12.460  14.987  0.00  0.00    +0.000 A 
ATOM    169  CE2 TYR A  18     -25.146 -10.797  16.584  0.00  0.00    +0.000 A 
ATOM    170  CZ  TYR A  18     -24.796 -11.752  15.654  0.00  0.00    +0.000 A 
ATOM    171  OH  TYR A  18     -23.488 -12.064  15.346  0.00  0.00    +0.000 OA
ATOM    172  HH  TYR A  18     -22.865 -11.507  15.856  0.00  0.00    +0.000 HD
ATOM    173  N   NME A  19     -31.410  -8.590  15.442  0.00  0.00    +0.000 N 
ATOM    174  H   NME A  19     -30.804  -7.791  15.598  0.00  0.00    +0.000 HD
ATOM    175  C   NME A  19     -32.784  -8.333  15.016  0.00  0.00    +0.000 C 
TER 
REMARK  Name = /home/xianyang/aimnet2_score_pipelines/work/L1234-fixed-receptor-eint-20260921/L3/Q92830/prepared.pdb
REMARK                            x       y       z     vdW  Elec       q    Type
REMARK                         _______ _______ _______ _____ _____    ______ ____
ATOM      1  CH3 ACE B   1     -21.234  -8.132   1.804  0.00  0.00    +0.000 C 
ATOM      2  C   ACE B   1     -22.605  -7.460   1.863  0.00  0.00    +0.000 C 
ATOM      3  O   ACE B   1     -22.738  -6.299   2.264  0.00  0.00    +0.000 OA
ATOM      4  N   ALA B   2     -23.653  -8.197   1.481  0.00  0.00    +0.000 N 
ATOM      5  H   ALA B   2     -23.504  -9.138   1.143  0.00  0.00    +0.000 HD
ATOM      6  CA  ALA B   2     -25.010  -7.637   1.495  0.00  0.00    +0.000 C 
ATOM      7  C   ALA B   2     -25.426  -7.221   2.885  0.00  0.00    +0.000 C 
ATOM      8  O   ALA B   2     -26.032  -6.163   3.065  0.00  0.00    +0.000 OA
ATOM      9  CB  ALA B   2     -25.966  -8.669   0.933  0.00  0.00    +0.000 C 
ATOM     10  N   ASN B   3     -25.152  -8.064   3.886  0.00  0.00    +0.000 N 
ATOM     11  H   ASN B   3     -24.781  -8.978   3.686  0.00  0.00    +0.000 HD
ATOM     12  CA  ASN B   3     -25.490  -7.687   5.250  0.00  0.00    +0.000 C 
ATOM     13  C   ASN B   3     -24.776  -6.422   5.672  0.00  0.00    +0.000 C 
ATOM     14  O   ASN B   3     -25.363  -5.548   6.323  0.00  0.00    +0.000 OA
ATOM     15  CB  ASN B   3     -25.147  -8.792   6.228  0.00  0.00    +0.000 C 
ATOM     16  CG  ASN B   3     -26.061 -10.004   6.124  0.00  0.00    +0.000 C 
ATOM     17  OD1 ASN B   3     -27.179  -9.960   5.598  0.00  0.00    +0.000 OA
ATOM     18  ND2 ASN B   3     -25.616 -11.050   6.739  0.00  0.00    +0.000 N 
ATOM     19 HD21 ASN B   3     -24.768 -11.040   7.277  0.00  0.00    +0.000 HD
ATOM     20 HD22 ASN B   3     -26.236 -11.844   6.776  0.00  0.00    +0.000 HD
ATOM     21  N   CYS B   4     -23.513  -6.275   5.299  0.00  0.00    +0.000 N 
ATOM     22  H   CYS B   4     -23.091  -6.964   4.695  0.00  0.00    +0.000 HD
ATOM     23  CA  CYS B   4     -22.767  -5.078   5.619  0.00  0.00    +0.000 C 
ATOM     24  C   CYS B   4     -23.404  -3.846   5.000  0.00  0.00    +0.000 C 
ATOM     25  O   CYS B   4     -23.577  -2.819   5.656  0.00  0.00    +0.000 OA
ATOM     26  CB  CYS B   4     -21.333  -5.251   5.114  0.00  0.00    +0.000 C 
ATOM     27  SG  CYS B   4     -20.254  -3.862   5.566  0.00  0.00    +0.000 S 
ATOM     28  HG  CYS B   4     -19.874  -4.311   6.769  0.00  0.00    +0.000 HD
ATOM     29  N   ARG B   5     -23.826  -3.956   3.748  0.00  0.00    +0.000 N 
ATOM     30  H   ARG B   5     -23.676  -4.825   3.248  0.00  0.00    +0.000 HD
ATOM     31  CA  ARG B   5     -24.433  -2.813   3.062  0.00  0.00    +0.000 C 
ATOM     32  C   ARG B   5     -25.840  -2.512   3.596  0.00  0.00    +0.000 C 
ATOM     33  O   ARG B   5     -26.304  -1.346   3.528  0.00  0.00    +0.000 OA
ATOM     34  CB  ARG B   5     -24.438  -3.125   1.565  0.00  0.00    +0.000 C 
ATOM     35  CG  ARG B   5     -23.069  -3.061   0.957  0.00  0.00    +0.000 C 
ATOM     36  CD  ARG B   5     -23.099  -3.313  -0.546  0.00  0.00    +0.000 C 
ATOM     37  NE  ARG B   5     -21.751  -3.124  -1.081  0.00  0.00    +0.000 N 
ATOM     38  HE  ARG B   5     -21.171  -2.431  -0.633  0.00  0.00    +0.000 HD
ATOM     39  CZ  ARG B   5     -21.219  -3.813  -2.099  0.00  0.00    +0.000 C 
ATOM     40  NH1 ARG B   5     -21.860  -4.776  -2.721  0.00  0.00    +0.000 N 
ATOM     41 HH11 ARG B   5     -22.816  -4.931  -2.459  0.00  0.00    +0.000 HD
ATOM     42 HH12 ARG B   5     -21.418  -5.327  -3.436  0.00  0.00    +0.000 HD
ATOM     43  NH2 ARG B   5     -19.961  -3.530  -2.447  0.00  0.00    +0.000 N 
ATOM     44 HH21 ARG B   5     -19.409  -4.132  -3.073  0.00  0.00    +0.000 HD
ATOM     45 HH22 ARG B   5     -19.437  -2.759  -2.041  0.00  0.00    +0.000 HD
ATOM     46  N   GLU B   6     -26.533  -3.517   4.117  0.00  0.00    +0.000 N 
ATOM     47  H   GLU B   6     -26.190  -4.461   4.025  0.00  0.00    +0.000 HD
ATOM     48  CA  GLU B   6     -27.866  -3.283   4.682  0.00  0.00    +0.000 C 
ATOM     49  C   GLU B   6     -27.766  -2.627   6.048  0.00  0.00    +0.000 C 
ATOM     50  O   GLU B   6     -28.563  -1.718   6.360  0.00  0.00    +0.000 OA
ATOM     51  CB  GLU B   6     -28.687  -4.581   4.777  0.00  0.00    +0.000 C 
ATOM     52  CG  GLU B   6     -30.099  -4.365   5.313  0.00  0.00    +0.000 C 
ATOM     53  CD  GLU B   6     -30.985  -3.354   4.535  0.00  0.00    +0.000 C 
ATOM     54  OE1 GLU B   6     -30.757  -3.092   3.337  0.00  0.00    +0.000 OA
ATOM     55  OE2 GLU B   6     -31.934  -2.748   5.135  0.00  0.00    +0.000 OA
ATOM     56  N   TYR B   7     -26.809  -3.070   6.875  0.00  0.00    +0.000 N 
ATOM     57  H   TYR B   7     -26.217  -3.836   6.577  0.00  0.00    +0.000 HD
ATOM     58  CA  TYR B   7     -26.745  -2.609   8.248  0.00  0.00    +0.000 C 
ATOM     59  C   TYR B   7     -26.081  -1.250   8.389  0.00  0.00    +0.000 C 
ATOM     60  O   TYR B   7     -26.527  -0.422   9.204  0.00  0.00    +0.000 OA
ATOM     61  CB  TYR B   7     -26.027  -3.609   9.151  0.00  0.00    +0.000 C 
ATOM     62  CG  TYR B   7     -26.168  -3.257  10.604  0.00  0.00    +0.000 A 
ATOM     63  CD1 TYR B   7     -27.339  -3.476  11.302  0.00  0.00    +0.000 A 
ATOM     64  CD2 TYR B   7     -25.129  -2.625  11.295  0.00  0.00    +0.000 A 
ATOM     65  CE1 TYR B   7     -27.434  -3.104  12.624  0.00  0.00    +0.000 A 
ATOM     66  CE2 TYR B   7     -25.254  -2.264  12.612  0.00  0.00    +0.000 A 
ATOM     67  CZ  TYR B   7     -26.439  -2.455  13.243  0.00  0.00    +0.000 A 
ATOM     68  OH  TYR B   7     -26.534  -2.031  14.582  0.00  0.00    +0.000 OA
ATOM     69  HH  TYR B   7     -27.442  -1.672  14.793  0.00  0.00    +0.000 HD
ATOM     70  N   ASN B   8     -24.997  -0.995   7.641  0.00  0.00    +0.000 N 
ATOM     71  H   ASN B   8     -24.771  -1.620   6.875  0.00  0.00    +0.000 HD
ATOM     72  CA  ASN B   8     -24.137   0.148   7.869  0.00  0.00    +0.000 C 
ATOM     73  C   ASN B   8     -24.433   1.284   6.917  0.00  0.00    +0.000 C 
ATOM     74  O   ASN B   8     -25.020   1.093   5.840  0.00  0.00    +0.000 OA
ATOM     75  CB  ASN B   8     -22.665  -0.282   7.731  0.00  0.00    +0.000 C 
ATOM     76  CG  ASN B   8     -22.286  -1.298   8.738  0.00  0.00    +0.000 C 
ATOM     77  OD1 ASN B   8     -22.349  -1.050   9.952  0.00  0.00    +0.000 OA
ATOM     78  ND2 ASN B   8     -21.873  -2.458   8.296  0.00  0.00    +0.000 N 
ATOM     79 HD21 ASN B   8     -21.895  -2.612   7.300  0.00  0.00    +0.000 HD
ATOM     80 HD22 ASN B   8     -21.620  -3.172   8.953  0.00  0.00    +0.000 HD
ATOM     81  N   PRO B   9     -24.031   2.497   7.270  0.00  0.00    +0.000 N 
ATOM     82  CA  PRO B   9     -24.219   3.622   6.345  0.00  0.00    +0.000 C 
ATOM     83  C   PRO B   9     -23.450   3.369   5.073  0.00  0.00    +0.000 C 
ATOM     84  O   PRO B   9     -22.371   2.761   5.112  0.00  0.00    +0.000 OA
ATOM     85  CB  PRO B   9     -23.640   4.815   7.114  0.00  0.00    +0.000 C 
ATOM     86  CG  PRO B   9     -23.730   4.377   8.572  0.00  0.00    +0.000 C 
ATOM     87  CD  PRO B   9     -23.428   2.893   8.538  0.00  0.00    +0.000 C 
ATOM     88  N   NME B  10     -23.979   3.801   3.939  0.00  0.00    +0.000 N 
ATOM     89  H   NME B  10     -24.894   4.225   3.946  0.00  0.00    +0.000 HD
ATOM     90  C   NME B  10     -23.328   3.467   2.660  0.00  0.00    +0.000 C 
TER 
REMARK  Name = /home/xianyang/aimnet2_score_pipelines/work/L1234-fixed-receptor-eint-20260921/L3/Q92830/prepared.pdb
REMARK                            x       y       z     vdW  Elec       q    Type
REMARK                         _______ _______ _______ _____ _____    ______ ____
ATOM      1  CH3 ACE C   1     -18.509   3.969   6.009  0.00  0.00    +0.000 C 
ATOM      2  C   ACE C   1     -17.302   3.072   5.798  0.00  0.00    +0.000 C 
ATOM      3  O   ACE C   1     -17.132   2.455   4.738  0.00  0.00    +0.000 OA
ATOM      4  N   GLU C   2     -16.458   3.001   6.821  0.00  0.00    +0.000 N 
ATOM      5  H   GLU C   2     -16.575   3.595   7.625  0.00  0.00    +0.000 HD
ATOM      6  CA  GLU C   2     -15.292   2.132   6.742  0.00  0.00    +0.000 C 
ATOM      7  C   GLU C   2     -15.691   0.681   6.495  0.00  0.00    +0.000 C 
ATOM      8  O   GLU C   2     -15.041  -0.024   5.701  0.00  0.00    +0.000 OA
ATOM      9  CB  GLU C   2     -14.463   2.265   8.018  0.00  0.00    +0.000 C 
ATOM     10  CG  GLU C   2     -13.148   1.518   7.946  0.00  0.00    +0.000 C 
ATOM     11  CD  GLU C   2     -12.190   2.069   6.893  0.00  0.00    +0.000 C 
ATOM     12  OE1 GLU C   2     -12.227   3.274   6.593  0.00  0.00    +0.000 OA
ATOM     13  OE2 GLU C   2     -11.399   1.281   6.340  0.00  0.00    +0.000 OA
ATOM     14  N   TYR C   3     -16.746   0.197   7.160  0.00  0.00    +0.000 N 
ATOM     15  H   TYR C   3     -17.212   0.771   7.843  0.00  0.00    +0.000 HD
ATOM     16  CA  TYR C   3     -17.143  -1.203   6.964  0.00  0.00    +0.000 C 
ATOM     17  C   TYR C   3     -17.568  -1.460   5.516  0.00  0.00    +0.000 C 
ATOM     18  O   TYR C   3     -17.170  -2.452   4.910  0.00  0.00    +0.000 OA
ATOM     19  CB  TYR C   3     -18.271  -1.576   7.922  0.00  0.00    +0.000 C 
ATOM     20  CG  TYR C   3     -17.907  -1.583   9.390  0.00  0.00    +0.000 A 
ATOM     21  CD1 TYR C   3     -16.797  -2.205   9.859  0.00  0.00    +0.000 A 
ATOM     22  CD2 TYR C   3     -18.704  -0.900  10.268  0.00  0.00    +0.000 A 
ATOM     23  CE1 TYR C   3     -16.495  -2.181  11.234  0.00  0.00    +0.000 A 
ATOM     24  CE2 TYR C   3     -18.395  -0.826  11.584  0.00  0.00    +0.000 A 
ATOM     25  CZ  TYR C   3     -17.341  -1.517  12.054  0.00  0.00    +0.000 A 
ATOM     26  OH  TYR C   3     -17.058  -1.435  13.425  0.00  0.00    +0.000 OA
ATOM     27  HH  TYR C   3     -17.856  -1.298  13.937  0.00  0.00    +0.000 HD
ATOM     28  N   CYS C   4     -18.347  -0.533   4.926  0.00  0.00    +0.000 N 
ATOM     29  H   CYS C   4     -18.585   0.303   5.432  0.00  0.00    +0.000 HD
ATOM     30  CA  CYS C   4     -18.732  -0.646   3.521  0.00  0.00    +0.000 C 
ATOM     31  C   CYS C   4     -17.537  -0.490   2.594  0.00  0.00    +0.000 C 
ATOM     32  O   CYS C   4     -17.465  -1.222   1.579  0.00  0.00    +0.000 OA
ATOM     33  CB  CYS C   4     -19.837   0.345   3.207  0.00  0.00    +0.000 C 
ATOM     34  SG  CYS C   4     -21.415  -0.242   3.822  0.00  0.00    +0.000 S 
ATOM     35  HG  CYS C   4     -21.903   0.949   4.222  0.00  0.00    +0.000 HD
ATOM     36  N   NME C   5     -16.544   0.355   2.933  0.00  0.00    +0.000 N 
ATOM     37  H   NME C   5     -16.594   0.907   3.784  0.00  0.00    +0.000 HD
ATOM     38  C   NME C   5     -15.331   0.396   2.104  0.00  0.00    +0.000 C 
TER 
