REMARK  Name = /home/xianyang/aimnet2_score_pipelines/work/L1234-fixed-receptor-eint-20260921/L3/Q62645/prepared.pdb
REMARK                            x       y       z     vdW  Elec       q    Type
REMARK                         _______ _______ _______ _____ _____    ______ ____
ATOM      1  CH3 ACE A   1       1.736  41.718   3.100  0.00  0.00    +0.000 C 
ATOM      2  C   ACE A   1       2.498  43.003   3.312  0.00  0.00    +0.000 C 
ATOM      3  O   ACE A   1       3.698  43.040   3.072  0.00  0.00    +0.000 OA
ATOM      4  N   GLU A   2       1.823  44.053   3.771  0.00  0.00    +0.000 N 
ATOM      5  H   GLU A   2       0.849  43.984   4.002  0.00  0.00    +0.000 HD
ATOM      6  CA  GLU A   2       2.526  45.322   3.941  0.00  0.00    +0.000 C 
ATOM      7  C   GLU A   2       3.485  45.247   5.120  0.00  0.00    +0.000 C 
ATOM      8  O   GLU A   2       3.102  44.855   6.223  0.00  0.00    +0.000 OA
ATOM      9  CB  GLU A   2       1.572  46.503   4.124  0.00  0.00    +0.000 C 
ATOM     10  CG  GLU A   2       2.318  47.831   4.163  0.00  0.00    +0.000 C 
ATOM     11  CD  GLU A   2       1.401  49.061   4.167  0.00  0.00    +0.000 C 
ATOM     12  OE1 GLU A   2       0.259  48.966   4.656  0.00  0.00    +0.000 OA
ATOM     13  OE2 GLU A   2       1.837  50.122   3.669  0.00  0.00    +0.000 OA
ATOM     14  N   GLU A   3       4.737  45.597   4.864  0.00  0.00    +0.000 N 
ATOM     15  H   GLU A   3       5.034  45.719   3.909  0.00  0.00    +0.000 HD
ATOM     16  CA  GLU A   3       5.716  45.764   5.919  0.00  0.00    +0.000 C 
ATOM     17  C   GLU A   3       6.809  46.664   5.396  0.00  0.00    +0.000 C 
ATOM     18  O   GLU A   3       7.720  46.211   4.725  0.00  0.00    +0.000 OA
ATOM     19  CB  GLU A   3       6.312  44.426   6.354  0.00  0.00    +0.000 C 
ATOM     20  CG  GLU A   3       7.435  44.620   7.372  0.00  0.00    +0.000 C 
ATOM     21  CD  GLU A   3       7.473  43.549   8.449  0.00  0.00    +0.000 C 
ATOM     22  OE1 GLU A   3       7.624  42.362   8.116  0.00  0.00    +0.000 OA
ATOM     23  OE2 GLU A   3       7.371  43.901   9.635  0.00  0.00    +0.000 OA
ATOM     24  N   ARG A   4       6.716  47.951   5.693  0.00  0.00    +0.000 N 
ATOM     25  H   ARG A   4       5.993  48.259   6.323  0.00  0.00    +0.000 HD
ATOM     26  CA  ARG A   4       7.633  48.903   5.092  0.00  0.00    +0.000 C 
ATOM     27  C   ARG A   4       9.038  48.655   5.610  0.00  0.00    +0.000 C 
ATOM     28  O   ARG A   4       9.217  48.307   6.777  0.00  0.00    +0.000 OA
ATOM     29  CB  ARG A   4       7.156  50.337   5.377  0.00  0.00    +0.000 C 
ATOM     30  CG  ARG A   4       5.702  50.534   4.944  0.00  0.00    +0.000 C 
ATOM     31  CD  ARG A   4       5.298  52.003   4.834  0.00  0.00    +0.000 C 
ATOM     32  NE  ARG A   4       3.926  52.133   4.339  0.00  0.00    +0.000 N 
ATOM     33  HE  ARG A   4       3.349  51.295   4.209  0.00  0.00    +0.000 HD
ATOM     34  CZ  ARG A   4       3.353  53.287   4.007  0.00  0.00    +0.000 C 
ATOM     35  NH1 ARG A   4       4.030  54.421   4.109  0.00  0.00    +0.000 N 
ATOM     36 HH11 ARG A   4       3.611  55.273   3.797  0.00  0.00    +0.000 HD
ATOM     37 HH12 ARG A   4       4.955  54.399   4.490  0.00  0.00    +0.000 HD
ATOM     38  NH2 ARG A   4       2.103  53.308   3.565  0.00  0.00    +0.000 N 
ATOM     39 HH21 ARG A   4       1.632  54.150   3.304  0.00  0.00    +0.000 HD
ATOM     40 HH22 ARG A   4       1.634  52.400   3.508  0.00  0.00    +0.000 HD
ATOM     41  N   NME A   5      10.053  48.820   4.745  0.00  0.00    +0.000 N 
ATOM     42  H   NME A   5      10.946  48.570   5.141  0.00  0.00    +0.000 HD
ATOM     43  C   NME A   5      10.045  49.270   3.354  0.00  0.00    +0.000 C 
TER 
REMARK  Name = /home/xianyang/aimnet2_score_pipelines/work/L1234-fixed-receptor-eint-20260921/L3/Q62645/prepared.pdb
REMARK                            x       y       z     vdW  Elec       q    Type
REMARK                         _______ _______ _______ _____ _____    ______ ____
ATOM      1  CH3 ACE B   1      -3.363  37.152   9.660  0.00  0.00    +0.000 C 
ATOM      2  C   ACE B   1      -2.245  37.865   8.911  0.00  0.00    +0.000 C 
ATOM      3  O   ACE B   1      -2.502  38.685   8.030  0.00  0.00    +0.000 OA
ATOM      4  N   LYS B   2      -0.997  37.556   9.257  0.00  0.00    +0.000 N 
ATOM      5  H   LYS B   2      -0.849  36.828   9.938  0.00  0.00    +0.000 HD
ATOM      6  CA  LYS B   2       0.136  38.289   8.698  0.00  0.00    +0.000 C 
ATOM      7  C   LYS B   2       1.135  37.366   7.994  0.00  0.00    +0.000 C 
ATOM      8  O   LYS B   2       0.833  36.820   6.923  0.00  0.00    +0.000 OA
ATOM      9  CB  LYS B   2       0.828  39.116   9.793  0.00  0.00    +0.000 C 
ATOM     10  CG  LYS B   2      -0.101  40.126  10.467  0.00  0.00    +0.000 C 
ATOM     11  CD  LYS B   2      -0.632  41.143   9.469  0.00  0.00    +0.000 C 
ATOM     12  CE  LYS B   2      -1.725  42.018  10.087  0.00  0.00    +0.000 C 
ATOM     13  NZ  LYS B   2      -2.233  43.048   9.124  0.00  0.00    +0.000 N 
ATOM     14  HZ1 LYS B   2      -3.141  43.391   9.408  0.00  0.00    +0.000 HD
ATOM     15  HZ2 LYS B   2      -2.310  42.650   8.198  0.00  0.00    +0.000 HD
ATOM     16  HZ3 LYS B   2      -1.593  43.830   9.070  0.00  0.00    +0.000 HD
ATOM     17  N   HIS B   3       2.325  37.197   8.574  0.00  0.00    +0.000 N 
ATOM     18  H   HIS B   3       2.567  37.748   9.378  0.00  0.00    +0.000 HD
ATOM     19  CA  HIS B   3       3.342  36.366   7.928  0.00  0.00    +0.000 C 
ATOM     20  C   HIS B   3       2.964  34.891   7.921  0.00  0.00    +0.000 C 
ATOM     21  O   HIS B   3       2.998  34.230   6.875  0.00  0.00    +0.000 OA
ATOM     22  CB  HIS B   3       4.708  36.564   8.588  0.00  0.00    +0.000 C 
ATOM     23  CG  HIS B   3       5.122  37.999   8.673  0.00  0.00    +0.000 A 
ATOM     24  ND1 HIS B   3       6.035  38.567   7.809  0.00  0.00    +0.000 N 
ATOM     25  HD1 HIS B   3       6.572  38.128   7.078  0.00  0.00    +0.000 HD
ATOM     26  CD2 HIS B   3       4.724  38.989   9.505  0.00  0.00    +0.000 A 
ATOM     27  CE1 HIS B   3       6.192  39.845   8.119  0.00  0.00    +0.000 A 
ATOM     28  NE2 HIS B   3       5.412  40.123   9.146  0.00  0.00    +0.000 NA
ATOM     29  N   GLY B   4       2.626  34.366   9.089  0.00  0.00    +0.000 N 
ATOM     30  H   GLY B   4       2.590  34.940   9.916  0.00  0.00    +0.000 HD
ATOM     31  CA  GLY B   4       2.259  32.963   9.166  0.00  0.00    +0.000 C 
ATOM     32  C   GLY B   4       2.353  32.441  10.581  0.00  0.00    +0.000 C 
ATOM     33  O   GLY B   4       3.391  32.518  11.228  0.00  0.00    +0.000 OA
ATOM     34  N   LYS B   5       1.251  31.882  11.054  0.00  0.00    +0.000 N 
ATOM     35  H   LYS B   5       0.430  31.787  10.468  0.00  0.00    +0.000 HD
ATOM     36  CA  LYS B   5       1.204  31.332  12.392  0.00  0.00    +0.000 C 
ATOM     37  C   LYS B   5       0.334  30.099  12.325  0.00  0.00    +0.000 C 
ATOM     38  O   LYS B   5      -0.700  30.097  11.640  0.00  0.00    +0.000 OA
ATOM     39  CB  LYS B   5       0.600  32.362  13.338  0.00  0.00    +0.000 C 
ATOM     40  CG  LYS B   5       0.074  31.808  14.641  0.00  0.00    +0.000 C 
ATOM     41  CD  LYS B   5       1.110  31.877  15.719  0.00  0.00    +0.000 C 
ATOM     42  CE  LYS B   5       0.514  31.481  17.060  0.00  0.00    +0.000 C 
ATOM     43  NZ  LYS B   5       1.599  31.242  18.030  0.00  0.00    +0.000 N 
ATOM     44  HZ1 LYS B   5       1.290  30.642  18.781  0.00  0.00    +0.000 HD
ATOM     45  HZ2 LYS B   5       2.407  30.837  17.582  0.00  0.00    +0.000 HD
ATOM     46  HZ3 LYS B   5       1.888  32.125  18.445  0.00  0.00    +0.000 HD
ATOM     47  N   NME B   6       0.774  29.048  13.003  0.00  0.00    +0.000 N 
ATOM     48  H   NME B   6       1.686  29.084  13.431  0.00  0.00    +0.000 HD
ATOM     49  C   NME B   6       0.010  27.809  13.088  0.00  0.00    +0.000 C 
TER 
REMARK  Name = /home/xianyang/aimnet2_score_pipelines/work/L1234-fixed-receptor-eint-20260921/L3/Q62645/prepared.pdb
REMARK                            x       y       z     vdW  Elec       q    Type
REMARK                         _______ _______ _______ _____ _____    ______ ____
ATOM      1  CH3 ACE C   1       6.810  37.308  -1.243  0.00  0.00    +0.000 C 
ATOM      2  C   ACE C   1       6.601  38.525  -0.350  0.00  0.00    +0.000 C 
ATOM      3  O   ACE C   1       5.549  39.170  -0.382  0.00  0.00    +0.000 OA
ATOM      4  N   GLY C   2       7.602  38.813   0.471  0.00  0.00    +0.000 N 
ATOM      5  H   GLY C   2       8.439  38.248   0.471  0.00  0.00    +0.000 HD
ATOM      6  CA  GLY C   2       7.560  39.953   1.354  0.00  0.00    +0.000 C 
ATOM      7  C   GLY C   2       8.682  39.757   2.348  0.00  0.00    +0.000 C 
ATOM      8  O   GLY C   2       9.674  39.051   2.075  0.00  0.00    +0.000 OA
ATOM      9  N   SER C   3       8.524  40.366   3.507  0.00  0.00    +0.000 N 
ATOM     10  H   SER C   3       7.725  40.960   3.697  0.00  0.00    +0.000 HD
ATOM     11  CA  SER C   3       9.483  40.201   4.589  0.00  0.00    +0.000 C 
ATOM     12  C   SER C   3       9.171  38.888   5.323  0.00  0.00    +0.000 C 
ATOM     13  O   SER C   3       8.869  38.875   6.512  0.00  0.00    +0.000 OA
ATOM     14  CB  SER C   3       9.392  41.399   5.529  0.00  0.00    +0.000 C 
ATOM     15  OG  SER C   3       8.040  41.790   5.693  0.00  0.00    +0.000 OA
ATOM     16  HG  SER C   3       7.905  41.999   6.660  0.00  0.00    +0.000 HD
ATOM     17  N   LEU C   4       9.254  37.783   4.591  0.00  0.00    +0.000 N 
ATOM     18  H   LEU C   4       9.566  37.864   3.630  0.00  0.00    +0.000 HD
ATOM     19  CA  LEU C   4       8.827  36.487   5.105  0.00  0.00    +0.000 C 
ATOM     20  C   LEU C   4      10.030  35.647   5.564  0.00  0.00    +0.000 C 
ATOM     21  O   LEU C   4      10.841  35.217   4.752  0.00  0.00    +0.000 OA
ATOM     22  CB  LEU C   4       8.052  35.747   4.006  0.00  0.00    +0.000 C 
ATOM     23  CG  LEU C   4       7.441  34.397   4.381  0.00  0.00    +0.000 C 
ATOM     24  CD1 LEU C   4       6.474  34.550   5.537  0.00  0.00    +0.000 C 
ATOM     25  CD2 LEU C   4       6.737  33.786   3.153  0.00  0.00    +0.000 C 
ATOM     26  N   THR C   5      10.132  35.401   6.863  0.00  0.00    +0.000 N 
ATOM     27  H   THR C   5       9.567  35.959   7.485  0.00  0.00    +0.000 HD
ATOM     28  CA  THR C   5      11.318  34.766   7.423  0.00  0.00    +0.000 C 
ATOM     29  C   THR C   5      11.301  33.240   7.316  0.00  0.00    +0.000 C 
ATOM     30  O   THR C   5      10.314  32.585   7.648  0.00  0.00    +0.000 OA
ATOM     31  CB  THR C   5      11.512  35.186   8.901  0.00  0.00    +0.000 C 
ATOM     32  OG1 THR C   5      11.630  36.614   8.968  0.00  0.00    +0.000 OA
ATOM     33  HG1 THR C   5      12.529  36.886   9.155  0.00  0.00    +0.000 HD
ATOM     34  CG2 THR C   5      12.758  34.547   9.494  0.00  0.00    +0.000 C 
ATOM     35  N   ILE C   6      12.416  32.685   6.856  0.00  0.00    +0.000 N 
ATOM     36  H   ILE C   6      13.190  33.280   6.572  0.00  0.00    +0.000 HD
ATOM     37  CA  ILE C   6      12.587  31.236   6.809  0.00  0.00    +0.000 C 
ATOM     38  C   ILE C   6      12.806  30.690   8.211  0.00  0.00    +0.000 C 
ATOM     39  O   ILE C   6      13.705  31.124   8.928  0.00  0.00    +0.000 OA
ATOM     40  CB  ILE C   6      13.779  30.835   5.911  0.00  0.00    +0.000 C 
ATOM     41  CG1 ILE C   6      13.580  31.382   4.494  0.00  0.00    +0.000 C 
ATOM     42  CG2 ILE C   6      13.954  29.315   5.901  0.00  0.00    +0.000 C 
ATOM     43  CD1 ILE C   6      14.806  31.227   3.585  0.00  0.00    +0.000 C 
ATOM     44  N   ASN C   7      11.952  29.767   8.624  0.00  0.00    +0.000 N 
ATOM     45  H   ASN C   7      11.257  29.423   7.978  0.00  0.00    +0.000 HD
ATOM     46  CA  ASN C   7      12.233  29.002   9.827  0.00  0.00    +0.000 C 
ATOM     47  C   ASN C   7      11.904  27.523   9.634  0.00  0.00    +0.000 C 
ATOM     48  O   ASN C   7      11.345  27.129   8.608  0.00  0.00    +0.000 OA
ATOM     49  CB  ASN C   7      11.625  29.626  11.108  0.00  0.00    +0.000 C 
ATOM     50  CG  ASN C   7      10.100  29.528  11.180  0.00  0.00    +0.000 C 
ATOM     51  OD1 ASN C   7       9.459  30.226  11.981  0.00  0.00    +0.000 OA
ATOM     52  ND2 ASN C   7       9.522  28.661  10.383  0.00  0.00    +0.000 N 
ATOM     53 HD21 ASN C   7       8.529  28.583  10.538  0.00  0.00    +0.000 HD
ATOM     54 HD22 ASN C   7      10.034  28.145   9.694  0.00  0.00    +0.000 HD
ATOM     55  N   GLU C   8      12.291  26.702  10.603  0.00  0.00    +0.000 N 
ATOM     56  H   GLU C   8      12.817  27.062  11.386  0.00  0.00    +0.000 HD
ATOM     57  CA  GLU C   8      12.165  25.249  10.480  0.00  0.00    +0.000 C 
ATOM     58  C   GLU C   8      10.718  24.814  10.333  0.00  0.00    +0.000 C 
ATOM     59  O   GLU C   8      10.371  24.012   9.460  0.00  0.00    +0.000 OA
ATOM     60  CB  GLU C   8      12.784  24.572  11.712  0.00  0.00    +0.000 C 
ATOM     61  CG  GLU C   8      12.661  23.057  11.714  0.00  0.00    +0.000 C 
ATOM     62  CD  GLU C   8      13.435  22.415  12.858  0.00  0.00    +0.000 C 
ATOM     63  OE1 GLU C   8      14.205  23.136  13.528  0.00  0.00    +0.000 OA
ATOM     64  OE2 GLU C   8      13.273  21.194  13.084  0.00  0.00    +0.000 OA
ATOM     65  N   GLU C   9       9.874  25.349  11.200  0.00  0.00    +0.000 N 
ATOM     66  H   GLU C   9      10.244  25.917  11.944  0.00  0.00    +0.000 HD
ATOM     67  CA  GLU C   9       8.460  25.034  11.185  0.00  0.00    +0.000 C 
ATOM     68  C   GLU C   9       7.821  25.278   9.814  0.00  0.00    +0.000 C 
ATOM     69  O   GLU C   9       7.084  24.433   9.278  0.00  0.00    +0.000 OA
ATOM     70  CB  GLU C   9       7.748  25.886  12.227  0.00  0.00    +0.000 C 
ATOM     71  CG  GLU C   9       6.314  25.523  12.355  0.00  0.00    +0.000 C 
ATOM     72  CD  GLU C   9       5.573  26.374  13.344  0.00  0.00    +0.000 C 
ATOM     73  OE1 GLU C   9       5.702  27.627  13.317  0.00  0.00    +0.000 OA
ATOM     74  OE2 GLU C   9       4.836  25.776  14.146  0.00  0.00    +0.000 OA
ATOM     75  N   ARG C  10       8.093  26.445   9.248  0.00  0.00    +0.000 N 
ATOM     76  H   ARG C  10       8.748  27.042   9.714  0.00  0.00    +0.000 HD
ATOM     77  CA  ARG C  10       7.530  26.792   7.947  0.00  0.00    +0.000 C 
ATOM     78  C   ARG C  10       8.160  25.955   6.825  0.00  0.00    +0.000 C 
ATOM     79  O   ARG C  10       7.468  25.501   5.920  0.00  0.00    +0.000 OA
ATOM     80  CB  ARG C  10       7.732  28.288   7.677  0.00  0.00    +0.000 C 
ATOM     81  CG  ARG C  10       6.980  29.180   8.666  0.00  0.00    +0.000 C 
ATOM     82  CD  ARG C  10       7.515  30.619   8.665  0.00  0.00    +0.000 C 
ATOM     83  NE  ARG C  10       6.695  31.495   9.499  0.00  0.00    +0.000 N 
ATOM     84  HE  ARG C  10       5.996  31.072  10.091  0.00  0.00    +0.000 HD
ATOM     85  CZ  ARG C  10       6.847  32.815   9.576  0.00  0.00    +0.000 C 
ATOM     86  NH1 ARG C  10       7.800  33.408   8.875  0.00  0.00    +0.000 N 
ATOM     87 HH11 ARG C  10       8.029  34.365   9.053  0.00  0.00    +0.000 HD
ATOM     88 HH12 ARG C  10       8.446  32.843   8.330  0.00  0.00    +0.000 HD
ATOM     89  NH2 ARG C  10       6.051  33.533  10.355  0.00  0.00    +0.000 N 
ATOM     90 HH21 ARG C  10       5.274  33.074  10.830  0.00  0.00    +0.000 HD
ATOM     91 HH22 ARG C  10       6.180  34.520  10.436  0.00  0.00    +0.000 HD
ATOM     92  N   SER C  11       9.467  25.748   6.899  0.00  0.00    +0.000 N 
ATOM     93  H   SER C  11      10.003  26.151   7.653  0.00  0.00    +0.000 HD
ATOM     94  CA  SER C  11      10.186  24.982   5.871  0.00  0.00    +0.000 C 
ATOM     95  C   SER C  11       9.734  23.524   5.772  0.00  0.00    +0.000 C 
ATOM     96  O   SER C  11       9.956  22.863   4.754  0.00  0.00    +0.000 OA
ATOM     97  CB  SER C  11      11.692  25.034   6.117  0.00  0.00    +0.000 C 
ATOM     98  OG  SER C  11      12.188  26.336   5.867  0.00  0.00    +0.000 OA
ATOM     99  HG  SER C  11      13.132  26.328   6.019  0.00  0.00    +0.000 HD
ATOM    100  N   NME C  12       9.111  23.025   6.829  0.00  0.00    +0.000 N 
ATOM    101  H   NME C  12       9.002  23.590   7.663  0.00  0.00    +0.000 HD
ATOM    102  C   NME C  12       8.580  21.666   6.819  0.00  0.00    +0.000 C 
TER 
REMARK  Name = /home/xianyang/aimnet2_score_pipelines/work/L1234-fixed-receptor-eint-20260921/L3/Q62645/prepared.pdb
REMARK                            x       y       z     vdW  Elec       q    Type
REMARK                         _______ _______ _______ _____ _____    ______ ____
ATOM      1  CH3 ACE D   1       9.869  44.822  26.459  0.00  0.00    +0.000 C 
ATOM      2  C   ACE D   1       8.916  43.855  25.768  0.00  0.00    +0.000 C 
ATOM      3  O   ACE D   1       8.360  42.941  26.384  0.00  0.00    +0.000 OA
ATOM      4  N   GLY D   2       8.741  44.066  24.472  0.00  0.00    +0.000 N 
ATOM      5  H   GLY D   2       9.267  44.782  23.997  0.00  0.00    +0.000 HD
ATOM      6  CA  GLY D   2       7.752  43.317  23.738  0.00  0.00    +0.000 C 
ATOM      7  C   GLY D   2       8.138  43.135  22.288  0.00  0.00    +0.000 C 
ATOM      8  O   GLY D   2       9.168  43.635  21.809  0.00  0.00    +0.000 OA
ATOM      9  N   THR D   3       7.287  42.399  21.587  0.00  0.00    +0.000 N 
ATOM     10  H   THR D   3       6.419  42.095  22.007  0.00  0.00    +0.000 HD
ATOM     11  CA  THR D   3       7.458  42.184  20.167  0.00  0.00    +0.000 C 
ATOM     12  C   THR D   3       6.083  42.309  19.506  0.00  0.00    +0.000 C 
ATOM     13  O   THR D   3       5.082  42.545  20.180  0.00  0.00    +0.000 OA
ATOM     14  CB  THR D   3       8.053  40.793  19.922  0.00  0.00    +0.000 C 
ATOM     15  OG1 THR D   3       8.427  40.643  18.543  0.00  0.00    +0.000 OA
ATOM     16  HG1 THR D   3       9.266  41.136  18.470  0.00  0.00    +0.000 HD
ATOM     17  CG2 THR D   3       7.055  39.700  20.339  0.00  0.00    +0.000 C 
ATOM     18  N   VAL D   4       6.040  42.211  18.181  0.00  0.00    +0.000 N 
ATOM     19  H   VAL D   4       6.882  41.922  17.699  0.00  0.00    +0.000 HD
ATOM     20  CA  VAL D   4       4.769  42.040  17.498  0.00  0.00    +0.000 C 
ATOM     21  C   VAL D   4       4.576  40.540  17.411  0.00  0.00    +0.000 C 
ATOM     22  O   VAL D   4       5.387  39.850  16.813  0.00  0.00    +0.000 OA
ATOM     23  CB  VAL D   4       4.814  42.607  16.071  0.00  0.00    +0.000 C 
ATOM     24  CG1 VAL D   4       3.485  42.307  15.343  0.00  0.00    +0.000 C 
ATOM     25  CG2 VAL D   4       5.086  44.110  16.115  0.00  0.00    +0.000 C 
ATOM     26  N   PRO D   5       3.510  40.024  18.016  0.00  0.00    +0.000 N 
ATOM     27  CA  PRO D   5       3.369  38.569  18.147  0.00  0.00    +0.000 C 
ATOM     28  C   PRO D   5       2.980  37.887  16.842  0.00  0.00    +0.000 C 
ATOM     29  O   PRO D   5       2.670  38.577  15.877  0.00  0.00    +0.000 OA
ATOM     30  CB  PRO D   5       2.223  38.424  19.144  0.00  0.00    +0.000 C 
ATOM     31  CG  PRO D   5       1.394  39.647  18.931  0.00  0.00    +0.000 C 
ATOM     32  CD  PRO D   5       2.388  40.755  18.626  0.00  0.00    +0.000 C 
ATOM     33  N   ASN D   6       3.009  36.554  16.853  0.00  0.00    +0.000 N 
ATOM     34  H   ASN D   6       3.237  36.106  17.745  0.00  0.00    +0.000 HD
ATOM     35  CA  ASN D   6       2.460  35.684  15.804  0.00  0.00    +0.000 C 
ATOM     36  C   ASN D   6       3.426  35.305  14.691  0.00  0.00    +0.000 C 
ATOM     37  O   ASN D   6       3.078  34.494  13.821  0.00  0.00    +0.000 OA
ATOM     38  CB  ASN D   6       1.177  36.247  15.169  0.00  0.00    +0.000 C 
ATOM     39  CG  ASN D   6       0.082  36.516  16.178  0.00  0.00    +0.000 C 
ATOM     40  OD1 ASN D   6      -0.054  35.811  17.173  0.00  0.00    +0.000 OA
ATOM     41  ND2 ASN D   6      -0.717  37.540  15.915  0.00  0.00    +0.000 N 
ATOM     42 HD21 ASN D   6      -1.417  37.741  16.606  0.00  0.00    +0.000 HD
ATOM     43 HD22 ASN D   6      -0.481  38.170  15.173  0.00  0.00    +0.000 HD
ATOM     44  N   GLY D   7       4.615  35.890  14.699  0.00  0.00    +0.000 N 
ATOM     45  H   GLY D   7       4.826  36.541  15.443  0.00  0.00    +0.000 HD
ATOM     46  CA  GLY D   7       5.584  35.652  13.640  0.00  0.00    +0.000 C 
ATOM     47  C   GLY D   7       6.800  34.863  14.093  0.00  0.00    +0.000 C 
ATOM     48  O   GLY D   7       6.799  34.262  15.181  0.00  0.00    +0.000 OA
ATOM     49  N   SER D   8       7.843  34.861  13.262  0.00  0.00    +0.000 N 
ATOM     50  H   SER D   8       7.848  35.439  12.436  0.00  0.00    +0.000 HD
ATOM     51  CA  SER D   8       9.029  34.053  13.539  0.00  0.00    +0.000 C 
ATOM     52  C   SER D   8       9.758  34.531  14.783  0.00  0.00    +0.000 C 
ATOM     53  O   SER D   8      10.367  33.729  15.493  0.00  0.00    +0.000 OA
ATOM     54  CB  SER D   8       9.991  34.045  12.351  0.00  0.00    +0.000 C 
ATOM     55  OG  SER D   8      10.353  35.362  12.011  0.00  0.00    +0.000 OA
ATOM     56  HG  SER D   8      11.191  35.599  12.423  0.00  0.00    +0.000 HD
ATOM     57  N   THR D   9       9.702  35.831  15.049  0.00  0.00    +0.000 N 
ATOM     58  H   THR D   9       9.278  36.469  14.393  0.00  0.00    +0.000 HD
ATOM     59  CA  THR D   9      10.361  36.350  16.242  0.00  0.00    +0.000 C 
ATOM     60  C   THR D   9       9.737  35.755  17.498  0.00  0.00    +0.000 C 
ATOM     61  O   THR D   9      10.440  35.157  18.320  0.00  0.00    +0.000 OA
ATOM     62  CB  THR D   9      10.329  37.885  16.299  0.00  0.00    +0.000 C 
ATOM     63  OG1 THR D   9      11.054  38.406  15.176  0.00  0.00    +0.000 OA
ATOM     64  HG1 THR D   9      11.987  38.239  15.309  0.00  0.00    +0.000 HD
ATOM     65  CG2 THR D   9      11.006  38.366  17.585  0.00  0.00    +0.000 C 
ATOM     66  N   GLU D  10       8.426  35.899  17.652  0.00  0.00    +0.000 N 
ATOM     67  H   GLU D  10       7.870  36.376  16.962  0.00  0.00    +0.000 HD
ATOM     68  CA  GLU D  10       7.783  35.341  18.845  0.00  0.00    +0.000 C 
ATOM     69  C   GLU D  10       7.979  33.821  18.921  0.00  0.00    +0.000 C 
ATOM     70  O   GLU D  10       8.212  33.270  19.999  0.00  0.00    +0.000 OA
ATOM     71  CB  GLU D  10       6.295  35.684  18.920  0.00  0.00    +0.000 C 
ATOM     72  CG  GLU D  10       5.692  35.294  20.282  0.00  0.00    +0.000 C 
ATOM     73  CD  GLU D  10       4.182  35.182  20.296  0.00  0.00    +0.000 C 
ATOM     74  OE1 GLU D  10       3.549  35.195  19.218  0.00  0.00    +0.000 OA
ATOM     75  OE2 GLU D  10       3.619  35.058  21.409  0.00  0.00    +0.000 OA
ATOM     76  N   LYS D  11       7.893  33.140  17.781  0.00  0.00    +0.000 N 
ATOM     77  H   LYS D  11       7.664  33.633  16.925  0.00  0.00    +0.000 HD
ATOM     78  CA  LYS D  11       8.091  31.690  17.765  0.00  0.00    +0.000 C 
ATOM     79  C   LYS D  11       9.471  31.289  18.304  0.00  0.00    +0.000 C 
ATOM     80  O   LYS D  11       9.601  30.354  19.097  0.00  0.00    +0.000 OA
ATOM     81  CB  LYS D  11       7.921  31.152  16.348  0.00  0.00    +0.000 C 
ATOM     82  CG  LYS D  11       8.113  29.645  16.224  0.00  0.00    +0.000 C 
ATOM     83  CD  LYS D  11       6.989  28.906  16.926  0.00  0.00    +0.000 C 
ATOM     84  CE  LYS D  11       7.041  27.417  16.603  0.00  0.00    +0.000 C 
ATOM     85  NZ  LYS D  11       8.397  26.877  16.878  0.00  0.00    +0.000 N 
ATOM     86  HZ1 LYS D  11       8.421  25.892  16.650  0.00  0.00    +0.000 HD
ATOM     87  HZ2 LYS D  11       8.638  27.011  17.851  0.00  0.00    +0.000 HD
ATOM     88  HZ3 LYS D  11       9.073  27.363  16.307  0.00  0.00    +0.000 HD
ATOM     89  N   NME D  12      10.499  31.989  17.848  0.00  0.00    +0.000 N 
ATOM     90  H   NME D  12      10.317  32.773  17.232  0.00  0.00    +0.000 HD
ATOM     91  C   NME D  12      11.862  31.758  18.308  0.00  0.00    +0.000 C 
TER 
REMARK  Name = /home/xianyang/aimnet2_score_pipelines/work/L1234-fixed-receptor-eint-20260921/L3/Q62645/prepared.pdb
REMARK                            x       y       z     vdW  Elec       q    Type
REMARK                         _______ _______ _______ _____ _____    ______ ____
ATOM      1  CH3 ACE E   1      11.384  46.280  21.194  0.00  0.00    +0.000 C 
ATOM      2  C   ACE E   1      12.217  45.223  20.495  0.00  0.00    +0.000 C 
ATOM      3  O   ACE E   1      13.247  45.533  19.882  0.00  0.00    +0.000 OA
ATOM      4  N   ILE E   2      11.801  43.962  20.625  0.00  0.00    +0.000 N 
ATOM      5  H   ILE E   2      10.916  43.777  21.086  0.00  0.00    +0.000 HD
ATOM      6  CA  ILE E   2      12.537  42.863  20.028  0.00  0.00    +0.000 C 
ATOM      7  C   ILE E   2      11.810  42.424  18.764  0.00  0.00    +0.000 C 
ATOM      8  O   ILE E   2      10.624  42.111  18.818  0.00  0.00    +0.000 OA
ATOM      9  CB  ILE E   2      12.638  41.658  21.007  0.00  0.00    +0.000 C 
ATOM     10  CG1 ILE E   2      13.276  42.094  22.326  0.00  0.00    +0.000 C 
ATOM     11  CG2 ILE E   2      13.453  40.550  20.374  0.00  0.00    +0.000 C 
ATOM     12  CD1 ILE E   2      13.178  41.037  23.440  0.00  0.00    +0.000 C 
ATOM     13  N   TYR E   3      12.508  42.408  17.631  0.00  0.00    +0.000 N 
ATOM     14  H   TYR E   3      13.484  42.669  17.610  0.00  0.00    +0.000 HD
ATOM     15  CA  TYR E   3      11.829  42.133  16.365  0.00  0.00    +0.000 C 
ATOM     16  C   TYR E   3      12.794  41.749  15.263  0.00  0.00    +0.000 C 
ATOM     17  O   TYR E   3      14.013  41.699  15.468  0.00  0.00    +0.000 OA
ATOM     18  CB  TYR E   3      11.002  43.352  15.943  0.00  0.00    +0.000 C 
ATOM     19  CG  TYR E   3      10.003  43.068  14.845  0.00  0.00    +0.000 A 
ATOM     20  CD1 TYR E   3       9.019  42.095  15.003  0.00  0.00    +0.000 A 
ATOM     21  CD2 TYR E   3      10.045  43.772  13.649  0.00  0.00    +0.000 A 
ATOM     22  CE1 TYR E   3       8.103  41.830  13.978  0.00  0.00    +0.000 A 
ATOM     23  CE2 TYR E   3       9.143  43.511  12.632  0.00  0.00    +0.000 A 
ATOM     24  CZ  TYR E   3       8.177  42.546  12.802  0.00  0.00    +0.000 A 
ATOM     25  OH  TYR E   3       7.283  42.287  11.776  0.00  0.00    +0.000 OA
ATOM     26  HH  TYR E   3       7.400  42.848  10.973  0.00  0.00    +0.000 HD
ATOM     27  N   ASP E   4      12.225  41.464  14.091  0.00  0.00    +0.000 N 
ATOM     28  H   ASP E   4      11.229  41.594  13.980  0.00  0.00    +0.000 HD
ATOM     29  CA  ASP E   4      12.984  41.127  12.906  0.00  0.00    +0.000 C 
ATOM     30  C   ASP E   4      14.124  42.119  12.690  0.00  0.00    +0.000 C 
ATOM     31  O   ASP E   4      13.920  43.326  12.736  0.00  0.00    +0.000 OA
ATOM     32  CB  ASP E   4      12.045  41.124  11.693  0.00  0.00    +0.000 C 
ATOM     33  CG  ASP E   4      12.778  40.906  10.397  0.00  0.00    +0.000 C 
ATOM     34  OD1 ASP E   4      13.127  39.748  10.103  0.00  0.00    +0.000 OA
ATOM     35  OD2 ASP E   4      12.994  41.890   9.665  0.00  0.00    +0.000 OA
ATOM     36  N   ALA E   5      15.319  41.603  12.433  0.00  0.00    +0.000 N 
ATOM     37  H   ALA E   5      15.415  40.605  12.351  0.00  0.00    +0.000 HD
ATOM     38  CA  ALA E   5      16.512  42.441  12.387  0.00  0.00    +0.000 C 
ATOM     39  C   ALA E   5      16.541  43.362  11.170  0.00  0.00    +0.000 C 
ATOM     40  O   ALA E   5      16.923  44.526  11.284  0.00  0.00    +0.000 OA
ATOM     41  CB  ALA E   5      17.780  41.585  12.444  0.00  0.00    +0.000 C 
ATOM     42  N   NME E   6      16.133  42.855  10.013  0.00  0.00    +0.000 N 
ATOM     43  H   NME E   6      15.614  41.987  10.007  0.00  0.00    +0.000 HD
ATOM     44  C   NME E   6      16.209  43.650   8.792  0.00  0.00    +0.000 C 
TER 
REMARK  Name = /home/xianyang/aimnet2_score_pipelines/work/L1234-fixed-receptor-eint-20260921/L3/Q62645/prepared.pdb
REMARK                            x       y       z     vdW  Elec       q    Type
REMARK                         _______ _______ _______ _____ _____    ______ ____
ATOM      1  CH3 ACE F   1      18.249  33.538   8.970  0.00  0.00    +0.000 C 
ATOM      2  C   ACE F   1      18.064  34.507   7.806  0.00  0.00    +0.000 C 
ATOM      3  O   ACE F   1      18.871  35.426   7.635  0.00  0.00    +0.000 OA
ATOM      4  N   GLY F   2      17.036  34.310   6.992  0.00  0.00    +0.000 N 
ATOM      5  H   GLY F   2      16.364  33.579   7.171  0.00  0.00    +0.000 HD
ATOM      6  CA  GLY F   2      16.855  35.184   5.844  0.00  0.00    +0.000 C 
ATOM      7  C   GLY F   2      15.391  35.266   5.452  0.00  0.00    +0.000 C 
ATOM      8  O   GLY F   2      14.593  34.477   5.946  0.00  0.00    +0.000 OA
ATOM      9  N   TYR F   3      15.044  36.228   4.599  0.00  0.00    +0.000 N 
ATOM     10  H   TYR F   3      15.753  36.845   4.237  0.00  0.00    +0.000 HD
ATOM     11  CA  TYR F   3      13.728  36.249   3.955  0.00  0.00    +0.000 C 
ATOM     12  C   TYR F   3      13.802  35.325   2.748  0.00  0.00    +0.000 C 
ATOM     13  O   TYR F   3      14.800  35.326   2.026  0.00  0.00    +0.000 OA
ATOM     14  CB  TYR F   3      13.378  37.644   3.426  0.00  0.00    +0.000 C 
ATOM     15  CG  TYR F   3      13.107  38.713   4.471  0.00  0.00    +0.000 A 
ATOM     16  CD1 TYR F   3      12.817  38.389   5.791  0.00  0.00    +0.000 A 
ATOM     17  CD2 TYR F   3      13.123  40.055   4.113  0.00  0.00    +0.000 A 
ATOM     18  CE1 TYR F   3      12.567  39.401   6.745  0.00  0.00    +0.000 A 
ATOM     19  CE2 TYR F   3      12.873  41.041   5.029  0.00  0.00    +0.000 A 
ATOM     20  CZ  TYR F   3      12.600  40.719   6.338  0.00  0.00    +0.000 A 
ATOM     21  OH  TYR F   3      12.354  41.736   7.221  0.00  0.00    +0.000 OA
ATOM     22  HH  TYR F   3      12.609  41.597   8.168  0.00  0.00    +0.000 HD
ATOM     23  N   GLY F   4      12.744  34.559   2.517  0.00  0.00    +0.000 N 
ATOM     24  H   GLY F   4      11.924  34.639   3.114  0.00  0.00    +0.000 HD
ATOM     25  CA  GLY F   4      12.681  33.700   1.347  0.00  0.00    +0.000 C 
ATOM     26  C   GLY F   4      11.288  33.761   0.770  0.00  0.00    +0.000 C 
ATOM     27  O   GLY F   4      10.331  34.109   1.462  0.00  0.00    +0.000 OA
ATOM     28  N   NME F   5      11.166  33.452  -0.509  0.00  0.00    +0.000 N 
ATOM     29  H   NME F   5      11.983  33.194  -1.041  0.00  0.00    +0.000 HD
ATOM     30  C   NME F   5       9.857  33.450  -1.146  0.00  0.00    +0.000 C 
TER 
