REMARK  Name = /data/user_data/xianyang/t3-aimnet-affinity-balanced/L2/P31645/pocket.pdb
REMARK                            x       y       z     vdW  Elec       q    Type
REMARK                         _______ _______ _______ _____ _____    ______ ____
ATOM      1  N   ASP A   1     126.360 137.856 123.302  0.00  0.00    +0.000 N 
ATOM      2  CA  ASP A   1     126.274 136.912 124.414  0.00  0.00    +0.000 C 
ATOM      3  C   ASP A   1     127.555 136.856 125.237  0.00  0.00    +0.000 C 
ATOM      4  O   ASP A   1     127.523 137.201 126.416  0.00  0.00    +0.000 OA
ATOM      5  CB  ASP A   1     125.902 135.527 123.884  0.00  0.00    +0.000 C 
ATOM      6  CG  ASP A   1     126.813 135.061 122.765  0.00  0.00    +0.000 C 
ATOM      7  OD1 ASP A   1     127.673 135.854 122.328  0.00  0.00    +0.000 OA
ATOM      8  OD2 ASP A   1     126.682 133.894 122.339  0.00  0.00    +0.000 OA
ATOM      9  N   LEU A   2     128.678 136.415 124.670  0.00  0.00    +0.000 N 
ATOM     10  CA  LEU A   2     129.949 136.426 125.392  0.00  0.00    +0.000 C 
ATOM     11  C   LEU A   2     131.143 136.818 124.540  0.00  0.00    +0.000 C 
ATOM     12  O   LEU A   2     132.153 137.274 125.096  0.00  0.00    +0.000 OA
ATOM     13  CB  LEU A   2     130.223 135.057 126.028  0.00  0.00    +0.000 C 
ATOM     14  CG  LEU A   2     129.274 134.612 127.146  0.00  0.00    +0.000 C 
ATOM     15  CD1 LEU A   2     129.498 133.149 127.494  0.00  0.00    +0.000 C 
ATOM     16  CD2 LEU A   2     129.424 135.495 128.378  0.00  0.00    +0.000 C 
ATOM     17  N   GLY A   3     131.078 136.645 123.223  0.00  0.00    +0.000 N 
ATOM     18  CA  GLY A   3     132.157 137.047 122.353  0.00  0.00    +0.000 C 
ATOM     19  C   GLY A   3     132.411 138.525 122.515  0.00  0.00    +0.000 C 
ATOM     20  O   GLY A   3     133.515 138.926 122.882  0.00  0.00    +0.000 OA
ATOM     21  N   ASN A   4     131.370 139.330 122.318  0.00  0.00    +0.000 N 
ATOM     22  CA  ASN A   4     131.522 140.774 122.390  0.00  0.00    +0.000 C 
ATOM     23  C   ASN A   4     131.950 141.255 123.770  0.00  0.00    +0.000 C 
ATOM     24  O   ASN A   4     132.401 142.397 123.893  0.00  0.00    +0.000 OA
ATOM     25  CB  ASN A   4     130.217 141.452 121.979  0.00  0.00    +0.000 C 
ATOM     26  CG  ASN A   4     129.622 140.850 120.722  0.00  0.00    +0.000 C 
ATOM     27  OD1 ASN A   4     129.878 141.319 119.614  0.00  0.00    +0.000 OA
ATOM     28  ND2 ASN A   4     128.823 139.804 120.888  0.00  0.00    +0.000 N 
ATOM     29  H   ASP A   1     125.480 137.855 122.786  0.00  0.00    +0.000 HD
ATOM     30  H   ASP A   1     127.120 137.580 122.680  0.00  0.00    +0.000 HD
ATOM     31  H   ASP A   1     126.540 138.792 123.664  0.00  0.00    +0.000 HD
ATOM     32  H   LEU A   2     128.651 136.075 123.746  0.00  0.00    +0.000 HD
ATOM     33  H   GLY A   3     130.274 136.233 122.832  0.00  0.00    +0.000 HD
ATOM     34  H   ASN A   4     130.486 138.943 122.121  0.00  0.00    +0.000 HD
ATOM     35  H   ASN A   4     128.408 139.372 120.106  0.00  0.00    +0.000 HD
ATOM     36  H   ASN A   4     128.645 139.459 121.793  0.00  0.00    +0.000 HD
TER 
REMARK  Name = /data/user_data/xianyang/t3-aimnet-affinity-balanced/L2/P31645/pocket.pdb
REMARK                            x       y       z     vdW  Elec       q    Type
REMARK                         _______ _______ _______ _____ _____    ______ ____
ATOM      1  N   ARG B   1     135.814 137.988 124.270  0.00  0.00    +0.000 N 
ATOM      2  CA  ARG B   1     136.657 137.404 123.235  0.00  0.00    +0.000 C 
ATOM      3  C   ARG B   1     137.052 138.430 122.184  0.00  0.00    +0.000 C 
ATOM      4  O   ARG B   1     138.139 138.335 121.605  0.00  0.00    +0.000 OA
ATOM      5  CB  ARG B   1     135.944 136.221 122.581  0.00  0.00    +0.000 C 
ATOM      6  CG  ARG B   1     136.862 135.321 121.772  0.00  0.00    +0.000 C 
ATOM      7  CD  ARG B   1     136.115 134.113 121.245  0.00  0.00    +0.000 C 
ATOM      8  NE  ARG B   1     135.375 133.432 122.302  0.00  0.00    +0.000 N 
ATOM      9  CZ  ARG B   1     135.875 132.458 123.055  0.00  0.00    +0.000 C 
ATOM     10  NH1 ARG B   1     137.121 132.047 122.868  0.00  0.00    +0.000 N 
ATOM     11  NH2 ARG B   1     135.128 131.895 123.995  0.00  0.00    +0.000 N 
ATOM     12  H   ARG B   1     136.299 138.776 124.699  0.00  0.00    +0.000 HD
ATOM     13  H   ARG B   1     135.612 137.285 124.981  0.00  0.00    +0.000 HD
ATOM     14  H   ARG B   1     134.941 138.312 123.854  0.00  0.00    +0.000 HD
ATOM     15  H   ARG B   1     134.446 133.712 122.468  0.00  0.00    +0.000 HD
ATOM     16  H   ARG B   1     137.677 132.464 122.171  0.00  0.00    +0.000 HD
ATOM     17  H   ARG B   1     137.490 131.325 123.426  0.00  0.00    +0.000 HD
ATOM     18  H   ARG B   1     134.202 132.199 124.136  0.00  0.00    +0.000 HD
ATOM     19  H   ARG B   1     135.499 131.173 124.552  0.00  0.00    +0.000 HD
TER 
REMARK  Name = /data/user_data/xianyang/t3-aimnet-affinity-balanced/L2/P31645/pocket.pdb
REMARK                            x       y       z     vdW  Elec       q    Type
REMARK                         _______ _______ _______ _____ _____    ______ ____
ATOM      1  N   ILE C   1     140.777 138.738 121.169  0.00  0.00    +0.000 N 
ATOM      2  CA  ILE C   1     141.117 138.404 119.790  0.00  0.00    +0.000 C 
ATOM      3  C   ILE C   1     141.472 139.639 118.978  0.00  0.00    +0.000 C 
ATOM      4  O   ILE C   1     141.943 139.507 117.838  0.00  0.00    +0.000 OA
ATOM      5  CB  ILE C   1     139.961 137.640 119.114  0.00  0.00    +0.000 C 
ATOM      6  CG1 ILE C   1     140.496 136.650 118.080  0.00  0.00    +0.000 C 
ATOM      7  CG2 ILE C   1     138.976 138.605 118.473  0.00  0.00    +0.000 C 
ATOM      8  CD1 ILE C   1     139.481 135.612 117.664  0.00  0.00    +0.000 C 
ATOM      9  H   ILE C   1     141.553 139.242 121.598  0.00  0.00    +0.000 HD
ATOM     10  H   ILE C   1     140.598 137.881 121.692  0.00  0.00    +0.000 HD
ATOM     11  H   ILE C   1     139.943 139.324 121.181  0.00  0.00    +0.000 HD
TER 
REMARK  Name = /data/user_data/xianyang/t3-aimnet-affinity-balanced/L2/P31645/pocket.pdb
REMARK                            x       y       z     vdW  Elec       q    Type
REMARK                         _______ _______ _______ _____ _____    ______ ____
ATOM      1  N   TYR D   1     127.239 123.125 127.329  0.00  0.00    +0.000 N 
ATOM      2  CA  TYR D   1     128.510 123.737 127.711  0.00  0.00    +0.000 C 
ATOM      3  C   TYR D   1     128.406 125.232 127.991  0.00  0.00    +0.000 C 
ATOM      4  O   TYR D   1     129.377 125.820 128.475  0.00  0.00    +0.000 OA
ATOM      5  CB  TYR D   1     129.583 123.503 126.639  0.00  0.00    +0.000 C 
ATOM      6  CG  TYR D   1     129.680 124.553 125.548  0.00  0.00    +0.000 A 
ATOM      7  CD1 TYR D   1     129.003 124.402 124.350  0.00  0.00    +0.000 A 
ATOM      8  CD2 TYR D   1     130.489 125.674 125.702  0.00  0.00    +0.000 A 
ATOM      9  CE1 TYR D   1     129.100 125.352 123.350  0.00  0.00    +0.000 A 
ATOM     10  CE2 TYR D   1     130.585 126.630 124.714  0.00  0.00    +0.000 A 
ATOM     11  CZ  TYR D   1     129.894 126.463 123.537  0.00  0.00    +0.000 A 
ATOM     12  OH  TYR D   1     129.996 127.412 122.546  0.00  0.00    +0.000 OA
ATOM     13  N   TYR D   2     127.264 125.860 127.722  0.00  0.00    +0.000 N 
ATOM     14  CA  TYR D   2     127.155 127.310 127.791  0.00  0.00    +0.000 C 
ATOM     15  C   TYR D   2     126.611 127.816 129.115  0.00  0.00    +0.000 C 
ATOM     16  O   TYR D   2     126.989 128.909 129.547  0.00  0.00    +0.000 OA
ATOM     17  CB  TYR D   2     126.259 127.812 126.654  0.00  0.00    +0.000 C 
ATOM     18  CG  TYR D   2     126.191 129.312 126.523  0.00  0.00    +0.000 A 
ATOM     19  CD1 TYR D   2     127.124 130.003 125.765  0.00  0.00    +0.000 A 
ATOM     20  CD2 TYR D   2     125.189 130.035 127.150  0.00  0.00    +0.000 A 
ATOM     21  CE1 TYR D   2     127.063 131.373 125.641  0.00  0.00    +0.000 A 
ATOM     22  CE2 TYR D   2     125.121 131.403 127.033  0.00  0.00    +0.000 A 
ATOM     23  CZ  TYR D   2     126.059 132.067 126.279  0.00  0.00    +0.000 A 
ATOM     24  OH  TYR D   2     125.988 133.432 126.165  0.00  0.00    +0.000 OA
ATOM     25  H   TYR D   1     127.379 122.129 127.157  0.00  0.00    +0.000 HD
ATOM     26  H   TYR D   1     126.888 123.571 126.481  0.00  0.00    +0.000 HD
ATOM     27  H   TYR D   1     126.562 123.248 128.082  0.00  0.00    +0.000 HD
ATOM     28  H   TYR D   1     129.527 127.302 121.742  0.00  0.00    +0.000 HD
ATOM     29  H   TYR D   2     126.473 125.331 127.470  0.00  0.00    +0.000 HD
ATOM     30  H   TYR D   2     126.623 133.893 125.653  0.00  0.00    +0.000 HD
TER 
REMARK  Name = /data/user_data/xianyang/t3-aimnet-affinity-balanced/L2/P31645/pocket.pdb
REMARK                            x       y       z     vdW  Elec       q    Type
REMARK                         _______ _______ _______ _____ _____    ______ ____
ATOM      1  N   ASP E   1     140.485 134.427 112.202  0.00  0.00    +0.000 N 
ATOM      2  CA  ASP E   1     139.928 134.778 113.502  0.00  0.00    +0.000 C 
ATOM      3  C   ASP E   1     138.797 135.785 113.362  0.00  0.00    +0.000 C 
ATOM      4  O   ASP E   1     137.778 135.679 114.051  0.00  0.00    +0.000 OA
ATOM      5  CB  ASP E   1     141.029 135.321 114.411  0.00  0.00    +0.000 C 
ATOM      6  CG  ASP E   1     142.052 134.266 114.783  0.00  0.00    +0.000 C 
ATOM      7  OD1 ASP E   1     141.675 133.079 114.879  0.00  0.00    +0.000 OA
ATOM      8  OD2 ASP E   1     143.232 134.622 114.979  0.00  0.00    +0.000 OA
ATOM      9  H   ASP E   1     139.744 134.065 111.601  0.00  0.00    +0.000 HD
ATOM     10  H   ASP E   1     141.204 133.714 112.322  0.00  0.00    +0.000 HD
ATOM     11  H   ASP E   1     140.896 135.256 111.773  0.00  0.00    +0.000 HD
TER 
REMARK  Name = /data/user_data/xianyang/t3-aimnet-affinity-balanced/L2/P31645/pocket.pdb
REMARK                            x       y       z     vdW  Elec       q    Type
REMARK                         _______ _______ _______ _____ _____    ______ ____
ATOM      1  N   ALA F   1     135.684 133.893 111.987  0.00  0.00    +0.000 N 
ATOM      2  CA  ALA F   1     135.089 133.065 113.030  0.00  0.00    +0.000 C 
ATOM      3  C   ALA F   1     134.382 133.917 114.072  0.00  0.00    +0.000 C 
ATOM      4  O   ALA F   1     133.266 133.594 114.495  0.00  0.00    +0.000 OA
ATOM      5  CB  ALA F   1     136.158 132.191 113.684  0.00  0.00    +0.000 C 
ATOM      6  N   GLN F   2     135.007 135.023 114.481  0.00  0.00    +0.000 N 
ATOM      7  CA  GLN F   2     134.419 135.869 115.510  0.00  0.00    +0.000 C 
ATOM      8  C   GLN F   2     133.131 136.514 115.022  0.00  0.00    +0.000 C 
ATOM      9  O   GLN F   2     132.127 136.528 115.741  0.00  0.00    +0.000 OA
ATOM     10  CB  GLN F   2     135.421 136.932 115.956  0.00  0.00    +0.000 C 
ATOM     11  CG  GLN F   2     134.846 137.937 116.934  0.00  0.00    +0.000 C 
ATOM     12  CD  GLN F   2     134.176 137.274 118.120  0.00  0.00    +0.000 C 
ATOM     13  OE1 GLN F   2     134.686 136.301 118.674  0.00  0.00    +0.000 OA
ATOM     14  NE2 GLN F   2     133.022 137.797 118.514  0.00  0.00    +0.000 N 
ATOM     15  H   ALA F   1     136.150 133.296 111.304  0.00  0.00    +0.000 HD
ATOM     16  H   ALA F   1     136.364 134.528 112.404  0.00  0.00    +0.000 HD
ATOM     17  H   ALA F   1     134.953 134.434 111.524  0.00  0.00    +0.000 HD
ATOM     18  H   GLN F   2     135.873 135.269 114.083  0.00  0.00    +0.000 HD
ATOM     19  H   GLN F   2     132.648 138.576 118.043  0.00  0.00    +0.000 HD
ATOM     20  H   GLN F   2     132.539 137.406 119.278  0.00  0.00    +0.000 HD
TER 
REMARK  Name = /data/user_data/xianyang/t3-aimnet-affinity-balanced/L2/P31645/pocket.pdb
REMARK                            x       y       z     vdW  Elec       q    Type
REMARK                         _______ _______ _______ _____ _____    ______ ____
ATOM      1  N   PHE G   1     130.351 133.679 114.706  0.00  0.00    +0.000 N 
ATOM      2  CA  PHE G   1     129.872 133.198 115.994  0.00  0.00    +0.000 C 
ATOM      3  C   PHE G   1     129.467 134.322 116.936  0.00  0.00    +0.000 C 
ATOM      4  O   PHE G   1     129.126 134.046 118.089  0.00  0.00    +0.000 OA
ATOM      5  CB  PHE G   1     130.937 132.318 116.649  0.00  0.00    +0.000 C 
ATOM      6  CG  PHE G   1     131.046 130.954 116.037  0.00  0.00    +0.000 A 
ATOM      7  CD1 PHE G   1     129.921 130.299 115.573  0.00  0.00    +0.000 A 
ATOM      8  CD2 PHE G   1     132.274 130.330 115.915  0.00  0.00    +0.000 A 
ATOM      9  CE1 PHE G   1     130.017 129.046 115.006  0.00  0.00    +0.000 A 
ATOM     10  CE2 PHE G   1     132.374 129.076 115.347  0.00  0.00    +0.000 A 
ATOM     11  CZ  PHE G   1     131.245 128.434 114.893  0.00  0.00    +0.000 A 
ATOM     12  N   SER G   2     129.526 135.577 116.495  0.00  0.00    +0.000 N 
ATOM     13  CA  SER G   2     128.913 136.670 117.233  0.00  0.00    +0.000 C 
ATOM     14  CB  SER G   2     127.566 137.080 116.666  0.00  0.00    +0.000 C 
ATOM     15  OG  SER G   2     126.659 137.412 117.436  0.00  0.00    +0.000 OA
ATOM     16  C   SER G   2     129.840 137.889 117.253  0.00  0.00    +0.000 C 
ATOM     17  O   SER G   2     129.221 138.985 117.903  0.00  0.00    +0.000 OA
ATOM     18  H   PHE G   1     130.607 132.884 114.120  0.00  0.00    +0.000 HD
ATOM     19  H   PHE G   1     131.168 134.274 114.847  0.00  0.00    +0.000 HD
ATOM     20  H   PHE G   1     129.614 134.216 114.248  0.00  0.00    +0.000 HD
ATOM     21  H   SER G   2     129.995 135.769 115.651  0.00  0.00    +0.000 HD
ATOM     22  H   SER G   2     128.412 139.228 117.427  0.00  0.00    +0.000 HD
TER 
REMARK  Name = /data/user_data/xianyang/t3-aimnet-affinity-balanced/L2/P31645/pocket.pdb
REMARK                            x       y       z     vdW  Elec       q    Type
REMARK                         _______ _______ _______ _____ _____    ______ ____
ATOM      1  N   GLU H   1     133.486 123.622 124.144  0.00  0.00    +0.000 N 
ATOM      2  CA  GLU H   1     133.439 124.957 123.566  0.00  0.00    +0.000 C 
ATOM      3  C   GLU H   1     134.180 125.014 122.240  0.00  0.00    +0.000 C 
ATOM      4  O   GLU H   1     133.710 125.650 121.290  0.00  0.00    +0.000 OA
ATOM      5  CB  GLU H   1     134.025 125.969 124.550  0.00  0.00    +0.000 C 
ATOM      6  CG  GLU H   1     134.117 127.385 124.015  0.00  0.00    +0.000 C 
ATOM      7  CD  GLU H   1     134.708 128.346 125.026  0.00  0.00    +0.000 C 
ATOM      8  OE2 GLU H   1     134.877 127.948 126.198  0.00  0.00    +0.000 OA
ATOM      9  OE1 GLU H   1     135.003 129.499 124.650  0.00  0.00    +0.000 OA
ATOM     10  N   GLU H   2     135.335 124.358 122.154  0.00  0.00    +0.000 N 
ATOM     11  CA  GLU H   2     136.136 124.375 120.939  0.00  0.00    +0.000 C 
ATOM     12  C   GLU H   2     136.014 123.086 120.135  0.00  0.00    +0.000 C 
ATOM     13  O   GLU H   2     136.873 122.807 119.293  0.00  0.00    +0.000 OA
ATOM     14  CB  GLU H   2     137.599 124.658 121.274  0.00  0.00    +0.000 C 
ATOM     15  CG  GLU H   2     137.797 125.878 122.157  0.00  0.00    +0.000 C 
ATOM     16  CD  GLU H   2     139.024 126.683 121.776  0.00  0.00    +0.000 C 
ATOM     17  OE1 GLU H   2     139.922 126.123 121.114  0.00  0.00    +0.000 OA
ATOM     18  OE2 GLU H   2     139.088 127.876 122.138  0.00  0.00    +0.000 OA
ATOM     19  N   TYR H   3     134.976 122.288 120.379  0.00  0.00    +0.000 N 
ATOM     20  CA  TYR H   3     134.731 121.130 119.529  0.00  0.00    +0.000 C 
ATOM     21  C   TYR H   3     133.296 121.100 119.017  0.00  0.00    +0.000 C 
ATOM     22  O   TYR H   3     133.050 120.683 117.881  0.00  0.00    +0.000 OA
ATOM     23  CB  TYR H   3     135.060 119.839 120.276  0.00  0.00    +0.000 C 
ATOM     24  CG  TYR H   3     136.513 119.448 120.169  0.00  0.00    +0.000 A 
ATOM     25  CD1 TYR H   3     137.075 119.129 118.943  0.00  0.00    +0.000 A 
ATOM     26  CD2 TYR H   3     137.325 119.404 121.291  0.00  0.00    +0.000 A 
ATOM     27  CE1 TYR H   3     138.402 118.772 118.839  0.00  0.00    +0.000 A 
ATOM     28  CE2 TYR H   3     138.653 119.050 121.196  0.00  0.00    +0.000 A 
ATOM     29  CZ  TYR H   3     139.186 118.735 119.968  0.00  0.00    +0.000 A 
ATOM     30  OH  TYR H   3     140.509 118.380 119.870  0.00  0.00    +0.000 OA
ATOM     31  H   GLU H   1     133.094 122.951 123.483  0.00  0.00    +0.000 HD
ATOM     32  H   GLU H   1     132.943 123.606 125.007  0.00  0.00    +0.000 HD
ATOM     33  H   GLU H   1     134.454 123.373 124.347  0.00  0.00    +0.000 HD
ATOM     34  H   GLU H   2     135.656 123.848 122.933  0.00  0.00    +0.000 HD
ATOM     35  H   TYR H   3     134.374 122.481 121.134  0.00  0.00    +0.000 HD
ATOM     36  H   TYR H   3     140.876 118.165 119.035  0.00  0.00    +0.000 HD
TER 
REMARK  Name = /data/user_data/xianyang/t3-aimnet-affinity-balanced/L2/P31645/pocket.pdb
REMARK                            x       y       z     vdW  Elec       q    Type
REMARK                         _______ _______ _______ _____ _____    ______ ____
ATOM      1  N   THR I   1     131.592 123.687 118.344  0.00  0.00    +0.000 N 
ATOM      2  CA  THR I   1     131.427 124.840 117.467  0.00  0.00    +0.000 C 
ATOM      3  C   THR I   1     132.450 124.820 116.336  0.00  0.00    +0.000 C 
ATOM      4  O   THR I   1     132.858 125.870 115.837  0.00  0.00    +0.000 OA
ATOM      5  CB  THR I   1     131.530 126.147 118.254  0.00  0.00    +0.000 C 
ATOM      6  OG1 THR I   1     132.903 126.409 118.570  0.00  0.00    +0.000 OA
ATOM      7  CG2 THR I   1     130.725 126.065 119.542  0.00  0.00    +0.000 C 
ATOM      8  N   GLY I   2     132.870 123.628 115.921  0.00  0.00    +0.000 N 
ATOM      9  CA  GLY I   2     133.885 123.487 114.908  0.00  0.00    +0.000 C 
ATOM     10  C   GLY I   2     133.313 123.481 113.508  0.00  0.00    +0.000 C 
ATOM     11  O   GLY I   2     132.588 124.394 113.104  0.00  0.00    +0.000 OA
ATOM     12  N   PRO I   3     133.636 122.444 112.731  0.00  0.00    +0.000 N 
ATOM     13  CA  PRO I   3     133.100 122.349 111.370  0.00  0.00    +0.000 C 
ATOM     14  C   PRO I   3     131.704 121.759 111.301  0.00  0.00    +0.000 C 
ATOM     15  O   PRO I   3     131.109 121.762 110.218  0.00  0.00    +0.000 OA
ATOM     16  CB  PRO I   3     134.116 121.446 110.657  0.00  0.00    +0.000 C 
ATOM     17  CG  PRO I   3     134.821 120.685 111.754  0.00  0.00    +0.000 C 
ATOM     18  CD  PRO I   3     134.444 121.270 113.089  0.00  0.00    +0.000 C 
ATOM     19  N   ALA I   4     131.154 121.275 112.415  0.00  0.00    +0.000 N 
ATOM     20  CA  ALA I   4     129.793 120.748 112.403  0.00  0.00    +0.000 C 
ATOM     21  C   ALA I   4     128.775 121.869 112.232  0.00  0.00    +0.000 C 
ATOM     22  O   ALA I   4     127.949 121.843 111.312  0.00  0.00    +0.000 OA
ATOM     23  CB  ALA I   4     129.524 119.961 113.686  0.00  0.00    +0.000 C 
ATOM     24  H   THR I   1     131.519 122.830 117.796  0.00  0.00    +0.000 HD
ATOM     25  H   THR I   1     130.864 123.696 119.059  0.00  0.00    +0.000 HD
ATOM     26  H   THR I   1     132.508 123.728 118.791  0.00  0.00    +0.000 HD
ATOM     27  H   THR I   1     133.253 125.687 119.116  0.00  0.00    +0.000 HD
ATOM     28  H   GLY I   2     132.476 122.818 116.318  0.00  0.00    +0.000 HD
ATOM     29  H   ALA I   4     131.671 121.273 113.253  0.00  0.00    +0.000 HD
TER 
REMARK  Name = /data/user_data/xianyang/t3-aimnet-affinity-balanced/L2/P31645/pocket.pdb
REMARK                            x       y       z     vdW  Elec       q    Type
REMARK                         _______ _______ _______ _____ _____    ______ ____
ATOM      1  N   PHE J   1     140.139 125.753 109.766  0.00  0.00    +0.000 N 
ATOM      2  CA  PHE J   1     140.534 124.951 110.915  0.00  0.00    +0.000 C 
ATOM      3  C   PHE J   1     140.046 123.512 110.829  0.00  0.00    +0.000 C 
ATOM      4  O   PHE J   1     140.068 122.801 111.837  0.00  0.00    +0.000 OA
ATOM      5  CB  PHE J   1     140.060 125.593 112.222  0.00  0.00    +0.000 C 
ATOM      6  CG  PHE J   1     138.663 126.133 112.176  0.00  0.00    +0.000 A 
ATOM      7  CD1 PHE J   1     137.577 125.285 112.065  0.00  0.00    +0.000 A 
ATOM      8  CD2 PHE J   1     138.436 127.494 112.285  0.00  0.00    +0.000 A 
ATOM      9  CE1 PHE J   1     136.295 125.787 112.039  0.00  0.00    +0.000 A 
ATOM     10  CE2 PHE J   1     137.157 127.999 112.261  0.00  0.00    +0.000 A 
ATOM     11  CZ  PHE J   1     136.087 127.146 112.139  0.00  0.00    +0.000 A 
ATOM     12  N   LEU J   2     139.605 123.067 109.652  0.00  0.00    +0.000 N 
ATOM     13  CA  LEU J   2     139.432 121.638 109.435  0.00  0.00    +0.000 C 
ATOM     14  C   LEU J   2     140.772 120.920 109.381  0.00  0.00    +0.000 C 
ATOM     15  O   LEU J   2     140.821 119.700 109.572  0.00  0.00    +0.000 OA
ATOM     16  CB  LEU J   2     138.649 121.387 108.145  0.00  0.00    +0.000 C 
ATOM     17  CG  LEU J   2     138.107 119.975 107.921  0.00  0.00    +0.000 C 
ATOM     18  CD2 LEU J   2     136.775 119.794 108.628  0.00  0.00    +0.000 C 
ATOM     19  CD1 LEU J   2     137.974 119.680 106.435  0.00  0.00    +0.000 C 
ATOM     20  N   MET J   3     141.856 121.654 109.134  0.00  0.00    +0.000 N 
ATOM     21  CA  MET J   3     143.198 121.097 109.104  0.00  0.00    +0.000 C 
ATOM     22  C   MET J   3     144.084 121.599 110.235  0.00  0.00    +0.000 C 
ATOM     23  O   MET J   3     145.182 121.063 110.420  0.00  0.00    +0.000 OA
ATOM     24  CB  MET J   3     143.870 121.415 107.760  0.00  0.00    +0.000 C 
ATOM     25  CG  MET J   3     143.927 122.899 107.437  0.00  0.00    +0.000 C 
ATOM     26  SD  MET J   3     144.555 123.230 105.781  0.00  0.00    +0.000 S 
ATOM     27  CE  MET J   3     143.319 122.406 104.780  0.00  0.00    +0.000 C 
ATOM     28  N   SER J   4     143.645 122.602 110.988  0.00  0.00    +0.000 N 
ATOM     29  CA  SER J   4     144.458 123.120 112.077  0.00  0.00    +0.000 C 
ATOM     30  C   SER J   4     144.495 122.116 113.227  0.00  0.00    +0.000 C 
ATOM     31  O   SER J   4     143.461 121.545 113.588  0.00  0.00    +0.000 OA
ATOM     32  CB  SER J   4     143.909 124.456 112.570  0.00  0.00    +0.000 C 
ATOM     33  OG  SER J   4     142.786 124.263 113.411  0.00  0.00    +0.000 OA
ATOM     34  N   PRO J   5     145.660 121.881 113.821  0.00  0.00    +0.000 N 
ATOM     35  CA  PRO J   5     145.756 120.905 114.910  0.00  0.00    +0.000 C 
ATOM     36  C   PRO J   5     145.165 121.458 116.193  0.00  0.00    +0.000 C 
ATOM     37  O   PRO J   5     145.571 122.531 116.666  0.00  0.00    +0.000 OA
ATOM     38  CB  PRO J   5     147.268 120.675 115.043  0.00  0.00    +0.000 C 
ATOM     39  CG  PRO J   5     147.881 121.941 114.554  0.00  0.00    +0.000 C 
ATOM     40  CD  PRO J   5     146.966 122.473 113.482  0.00  0.00    +0.000 C 
ATOM     41  N   PRO J   6     144.196 120.760 116.785  0.00  0.00    +0.000 N 
ATOM     42  CA  PRO J   6     143.625 121.211 118.064  0.00  0.00    +0.000 C 
ATOM     43  C   PRO J   6     144.611 120.994 119.203  0.00  0.00    +0.000 C 
ATOM     44  O   PRO J   6     145.043 119.869 119.465  0.00  0.00    +0.000 OA
ATOM     45  CB  PRO J   6     142.373 120.341 118.219  0.00  0.00    +0.000 C 
ATOM     46  CG  PRO J   6     142.655 119.125 117.404  0.00  0.00    +0.000 C 
ATOM     47  CD  PRO J   6     143.511 119.570 116.254  0.00  0.00    +0.000 C 
ATOM     48  H   PHE J   1     140.466 125.305 108.910  0.00  0.00    +0.000 HD
ATOM     49  H   PHE J   1     140.552 126.683 109.842  0.00  0.00    +0.000 HD
ATOM     50  H   PHE J   1     139.122 125.833 109.741  0.00  0.00    +0.000 HD
ATOM     51  H   LEU J   2     139.397 123.704 108.931  0.00  0.00    +0.000 HD
ATOM     52  H   MET J   3     141.743 122.617 108.964  0.00  0.00    +0.000 HD
ATOM     53  H   SER J   4     142.762 122.998 110.807  0.00  0.00    +0.000 HD
ATOM     54  H   SER J   4     142.084 123.812 112.915  0.00  0.00    +0.000 HD
TER 
REMARK  Name = /data/user_data/xianyang/t3-aimnet-affinity-balanced/L2/P31645/pocket.pdb
REMARK                            x       y       z     vdW  Elec       q    Type
REMARK                         _______ _______ _______ _____ _____    ______ ____
ATOM      1  N   LEU K   1     144.268 122.487 122.622  0.00  0.00    +0.000 N 
ATOM      2  CA  LEU K   1     143.498 123.230 123.618  0.00  0.00    +0.000 C 
ATOM      3  C   LEU K   1     144.351 123.746 124.773  0.00  0.00    +0.000 C 
ATOM      4  O   LEU K   1     144.499 124.961 124.937  0.00  0.00    +0.000 OA
ATOM      5  CB  LEU K   1     142.373 122.347 124.167  0.00  0.00    +0.000 C 
ATOM      6  CG  LEU K   1     141.100 122.155 123.337  0.00  0.00    +0.000 C 
ATOM      7  CD2 LEU K   1     140.454 123.495 123.049  0.00  0.00    +0.000 C 
ATOM      8  CD1 LEU K   1     141.351 121.375 122.054  0.00  0.00    +0.000 C 
ATOM      9  H   LEU K   1     143.646 122.169 121.879  0.00  0.00    +0.000 HD
ATOM     10  H   LEU K   1     144.708 121.680 123.065  0.00  0.00    +0.000 HD
ATOM     11  H   LEU K   1     144.988 123.093 122.227  0.00  0.00    +0.000 HD
TER 
REMARK  Name = /data/user_data/xianyang/t3-aimnet-affinity-balanced/L2/P31645/pocket.pdb
REMARK                            x       y       z     vdW  Elec       q    Type
REMARK                         _______ _______ _______ _____ _____    ______ ____
ATOM      1  N   GLY L   1     136.547 114.719 120.369  0.00  0.00    +0.000 N 
ATOM      2  CA  GLY L   1     136.064 115.892 119.662  0.00  0.00    +0.000 C 
ATOM      3  C   GLY L   1     135.575 115.565 118.265  0.00  0.00    +0.000 C 
ATOM      4  O   GLY L   1     134.573 116.119 117.802  0.00  0.00    +0.000 OA
ATOM      5  N   TYR L   2     136.270 114.658 117.575  0.00  0.00    +0.000 N 
ATOM      6  CA  TYR L   2     135.810 114.222 116.260  0.00  0.00    +0.000 C 
ATOM      7  C   TYR L   2     134.452 113.539 116.356  0.00  0.00    +0.000 C 
ATOM      8  O   TYR L   2     133.577 113.759 115.513  0.00  0.00    +0.000 OA
ATOM      9  CB  TYR L   2     136.832 113.280 115.622  0.00  0.00    +0.000 C 
ATOM     10  CG  TYR L   2     138.097 113.947 115.124  0.00  0.00    +0.000 A 
ATOM     11  CD2 TYR L   2     138.349 115.290 115.368  0.00  0.00    +0.000 A 
ATOM     12  CD1 TYR L   2     139.041 113.226 114.404  0.00  0.00    +0.000 A 
ATOM     13  CE2 TYR L   2     139.505 115.893 114.914  0.00  0.00    +0.000 A 
ATOM     14  CE1 TYR L   2     140.198 113.822 113.945  0.00  0.00    +0.000 A 
ATOM     15  CZ  TYR L   2     140.425 115.154 114.203  0.00  0.00    +0.000 A 
ATOM     16  OH  TYR L   2     141.577 115.749 113.746  0.00  0.00    +0.000 OA
ATOM     17  N   CYS L   3     134.254 112.713 117.386  0.00  0.00    +0.000 N 
ATOM     18  CA  CYS L   3     132.971 112.040 117.561  0.00  0.00    +0.000 C 
ATOM     19  C   CYS L   3     131.872 113.029 117.929  0.00  0.00    +0.000 C 
ATOM     20  O   CYS L   3     130.723 112.876 117.501  0.00  0.00    +0.000 OA
ATOM     21  CB  CYS L   3     133.094 110.950 118.625  0.00  0.00    +0.000 C 
ATOM     22  SG  CYS L   3     131.519 110.309 119.233  0.00  0.00    +0.000 S 
ATOM     23  N   ILE L   4     132.204 114.050 118.723  0.00  0.00    +0.000 N 
ATOM     24  CA  ILE L   4     131.226 115.080 119.062  0.00  0.00    +0.000 C 
ATOM     25  C   ILE L   4     130.823 115.858 117.816  0.00  0.00    +0.000 C 
ATOM     26  O   ILE L   4     129.646 116.182 117.619  0.00  0.00    +0.000 OA
ATOM     27  CB  ILE L   4     131.785 116.006 120.158  0.00  0.00    +0.000 C 
ATOM     28  CG1 ILE L   4     131.797 115.282 121.504  0.00  0.00    +0.000 C 
ATOM     29  CG2 ILE L   4     130.975 117.287 120.251  0.00  0.00    +0.000 C 
ATOM     30  CD1 ILE L   4     132.416 116.084 122.619  0.00  0.00    +0.000 C 
ATOM     31  N   GLY L   5     131.791 116.164 116.951  0.00  0.00    +0.000 N 
ATOM     32  CA  GLY L   5     131.461 116.802 115.688  0.00  0.00    +0.000 C 
ATOM     33  C   GLY L   5     130.636 115.907 114.784  0.00  0.00    +0.000 C 
ATOM     34  O   GLY L   5     129.728 116.375 114.093  0.00  0.00    +0.000 OA
ATOM     35  N   THR L   6     130.937 114.606 114.779  0.00  0.00    +0.000 N 
ATOM     36  CA  THR L   6     130.195 113.650 113.965  0.00  0.00    +0.000 C 
ATOM     37  C   THR L   6     128.782 113.428 114.492  0.00  0.00    +0.000 C 
ATOM     38  O   THR L   6     127.901 113.027 113.723  0.00  0.00    +0.000 OA
ATOM     39  CB  THR L   6     130.971 112.328 113.900  0.00  0.00    +0.000 C 
ATOM     40  OG1 THR L   6     132.242 112.556 113.280  0.00  0.00    +0.000 OA
ATOM     41  CG2 THR L   6     130.224 111.276 113.091  0.00  0.00    +0.000 C 
ATOM     42  H   GLY L   1     136.864 114.990 121.300  0.00  0.00    +0.000 HD
ATOM     43  H   GLY L   1     137.324 114.306 119.852  0.00  0.00    +0.000 HD
ATOM     44  H   GLY L   1     135.793 114.037 120.451  0.00  0.00    +0.000 HD
ATOM     45  H   TYR L   2     137.097 114.281 117.955  0.00  0.00    +0.000 HD
ATOM     46  H   TYR L   2     142.203 115.247 113.262  0.00  0.00    +0.000 HD
ATOM     47  H   CYS L   3     134.980 112.557 118.033  0.00  0.00    +0.000 HD
ATOM     48  H   CYS L   3     130.827 111.310 119.840  0.00  0.00    +0.000 HD
ATOM     49  H   ILE L   4     133.118 114.109 119.084  0.00  0.00    +0.000 HD
ATOM     50  H   GLY L   5     132.729 115.958 117.168  0.00  0.00    +0.000 HD
ATOM     51  H   THR L   6     131.679 114.284 115.340  0.00  0.00    +0.000 HD
ATOM     52  H   THR L   6     132.107 112.880 112.376  0.00  0.00    +0.000 HD
TER 
