REMARK  Name = /data/user_data/xianyang/t3-aimnet-affinity-balanced/L2/Q6P179/pocket.pdb
REMARK                            x       y       z     vdW  Elec       q    Type
REMARK                         _______ _______ _______ _____ _____    ______ ____
ATOM      1  N   ASP A   1      24.757  14.700  52.157  0.00  0.00    +0.000 N 
ATOM      2  CA  ASP A   1      24.238  14.096  53.381  0.00  0.00    +0.000 C 
ATOM      3  C   ASP A   1      25.416  13.851  54.310  0.00  0.00    +0.000 C 
ATOM      4  O   ASP A   1      26.297  13.049  53.989  0.00  0.00    +0.000 OA
ATOM      5  CB  ASP A   1      23.495  12.793  53.087  0.00  0.00    +0.000 C 
ATOM      6  CG  ASP A   1      22.622  12.350  54.241  0.00  0.00    +0.000 C 
ATOM      7  OD1 ASP A   1      21.479  12.842  54.344  0.00  0.00    +0.000 OA
ATOM      8  OD2 ASP A   1      23.078  11.511  55.044  0.00  0.00    +0.000 OA
ATOM      9  H   ASP A   1      23.987  14.877  51.512  0.00  0.00    +0.000 HD
ATOM     10  H   ASP A   1      25.426  14.065  51.722  0.00  0.00    +0.000 HD
ATOM     11  H   ASP A   1      25.220  15.580  52.382  0.00  0.00    +0.000 HD
TER 
REMARK  Name = /data/user_data/xianyang/t3-aimnet-affinity-balanced/L2/Q6P179/pocket.pdb
REMARK                            x       y       z     vdW  Elec       q    Type
REMARK                         _______ _______ _______ _____ _____    ______ ____
ATOM      1  N   GLU B   1      25.305  13.814  58.212  0.00  0.00    +0.000 N 
ATOM      2  CA  GLU B   1      25.176  13.263  59.557  0.00  0.00    +0.000 C 
ATOM      3  C   GLU B   1      25.475  11.767  59.537  0.00  0.00    +0.000 C 
ATOM      4  O   GLU B   1      24.903  11.038  58.717  0.00  0.00    +0.000 OA
ATOM      5  CB  GLU B   1      23.778  13.521  60.115  0.00  0.00    +0.000 C 
ATOM      6  CG  GLU B   1      23.671  13.349  61.624  0.00  0.00    +0.000 C 
ATOM      7  CD  GLU B   1      22.319  13.762  62.169  0.00  0.00    +0.000 C 
ATOM      8  OE1 GLU B   1      21.313  13.619  61.445  0.00  0.00    +0.000 OA
ATOM      9  OE2 GLU B   1      22.262  14.227  63.326  0.00  0.00    +0.000 OA
ATOM     10  N   PRO B   2      26.349  11.268  60.424  0.00  0.00    +0.000 N 
ATOM     11  CA  PRO B   2      27.016  12.072  61.453  0.00  0.00    +0.000 C 
ATOM     12  C   PRO B   2      28.403  12.602  61.075  0.00  0.00    +0.000 C 
ATOM     13  O   PRO B   2      28.710  13.753  61.381  0.00  0.00    +0.000 OA
ATOM     14  CB  PRO B   2      27.120  11.091  62.616  0.00  0.00    +0.000 C 
ATOM     15  CG  PRO B   2      27.341   9.770  61.941  0.00  0.00    +0.000 C 
ATOM     16  CD  PRO B   2      26.585   9.826  60.625  0.00  0.00    +0.000 C 
ATOM     17  H   GLU B   1      26.244  13.631  57.858  0.00  0.00    +0.000 HD
ATOM     18  H   GLU B   1      25.142  14.821  58.240  0.00  0.00    +0.000 HD
ATOM     19  H   GLU B   1      24.619  13.375  57.598  0.00  0.00    +0.000 HD
TER 
REMARK  Name = /data/user_data/xianyang/t3-aimnet-affinity-balanced/L2/Q6P179/pocket.pdb
REMARK                            x       y       z     vdW  Elec       q    Type
REMARK                         _______ _______ _______ _____ _____    ______ ____
ATOM      1  N   GLN C   1      30.159  12.585  57.839  0.00  0.00    +0.000 N 
ATOM      2  CA  GLN C   1      30.369  12.537  56.400  0.00  0.00    +0.000 C 
ATOM      3  C   GLN C   1      30.582  13.907  55.769  0.00  0.00    +0.000 C 
ATOM      4  O   GLN C   1      30.769  13.984  54.550  0.00  0.00    +0.000 OA
ATOM      5  CB  GLN C   1      29.194  11.829  55.714  0.00  0.00    +0.000 C 
ATOM      6  CG  GLN C   1      29.180  10.323  55.929  0.00  0.00    +0.000 C 
ATOM      7  CD  GLN C   1      28.239   9.895  57.037  0.00  0.00    +0.000 C 
ATOM      8  OE1 GLN C   1      28.654   9.268  58.012  0.00  0.00    +0.000 OA
ATOM      9  NE2 GLN C   1      26.961  10.224  56.889  0.00  0.00    +0.000 N 
ATOM     10  H   GLN C   1      30.024  11.639  58.195  0.00  0.00    +0.000 HD
ATOM     11  H   GLN C   1      29.332  13.146  58.043  0.00  0.00    +0.000 HD
ATOM     12  H   GLN C   1      30.974  13.004  58.288  0.00  0.00    +0.000 HD
ATOM     13  H   GLN C   1      26.671  10.726  56.093  0.00  0.00    +0.000 HD
ATOM     14  H   GLN C   1      26.304   9.966  57.575  0.00  0.00    +0.000 HD
TER 
REMARK  Name = /data/user_data/xianyang/t3-aimnet-affinity-balanced/L2/Q6P179/pocket.pdb
REMARK                            x       y       z     vdW  Elec       q    Type
REMARK                         _______ _______ _______ _____ _____    ______ ____
ATOM      1  N   PHE D   1      17.803   8.686  48.396  0.00  0.00    +0.000 N 
ATOM      2  CA  PHE D   1      18.051   9.182  49.746  0.00  0.00    +0.000 C 
ATOM      3  C   PHE D   1      17.927   8.022  50.721  0.00  0.00    +0.000 C 
ATOM      4  O   PHE D   1      16.873   7.383  50.796  0.00  0.00    +0.000 OA
ATOM      5  CB  PHE D   1      17.077  10.307  50.114  0.00  0.00    +0.000 C 
ATOM      6  CG  PHE D   1      17.576  11.204  51.209  0.00  0.00    +0.000 A 
ATOM      7  CD1 PHE D   1      18.663  12.035  51.002  0.00  0.00    +0.000 A 
ATOM      8  CD2 PHE D   1      16.956  11.218  52.446  0.00  0.00    +0.000 A 
ATOM      9  CE1 PHE D   1      19.124  12.863  52.012  0.00  0.00    +0.000 A 
ATOM     10  CE2 PHE D   1      17.412  12.041  53.457  0.00  0.00    +0.000 A 
ATOM     11  CZ  PHE D   1      18.499  12.862  53.239  0.00  0.00    +0.000 A 
ATOM     12  N   ALA D   2      19.003   7.759  51.476  0.00  0.00    +0.000 N 
ATOM     13  CA  ALA D   2      18.994   6.607  52.380  0.00  0.00    +0.000 C 
ATOM     14  C   ALA D   2      18.119   6.843  53.605  0.00  0.00    +0.000 C 
ATOM     15  O   ALA D   2      17.216   6.027  53.863  0.00  0.00    +0.000 OA
ATOM     16  CB  ALA D   2      20.429   6.218  52.746  0.00  0.00    +0.000 C 
ATOM     17  N   PRO D   3      18.311   7.902  54.397  0.00  0.00    +0.000 N 
ATOM     18  CA  PRO D   3      17.476   8.077  55.591  0.00  0.00    +0.000 C 
ATOM     19  C   PRO D   3      16.063   8.494  55.216  0.00  0.00    +0.000 C 
ATOM     20  O   PRO D   3      15.763   8.847  54.075  0.00  0.00    +0.000 OA
ATOM     21  CB  PRO D   3      18.186   9.191  56.369  0.00  0.00    +0.000 C 
ATOM     22  CG  PRO D   3      19.537   9.322  55.737  0.00  0.00    +0.000 C 
ATOM     23  CD  PRO D   3      19.307   8.983  54.304  0.00  0.00    +0.000 C 
ATOM     24  N   GLY D   4      15.178   8.443  56.213  0.00  0.00    +0.000 N 
ATOM     25  CA  GLY D   4      13.819   8.908  55.998  0.00  0.00    +0.000 C 
ATOM     26  C   GLY D   4      13.753  10.381  55.653  0.00  0.00    +0.000 C 
ATOM     27  O   GLY D   4      12.898  10.802  54.869  0.00  0.00    +0.000 OA
ATOM     28  N   ALA D   5      14.654  11.177  56.226  0.00  0.00    +0.000 N 
ATOM     29  CA  ALA D   5      14.778  12.610  55.984  0.00  0.00    +0.000 C 
ATOM     30  C   ALA D   5      15.997  13.092  56.761  0.00  0.00    +0.000 C 
ATOM     31  O   ALA D   5      16.571  12.357  57.569  0.00  0.00    +0.000 OA
ATOM     32  CB  ALA D   5      13.531  13.390  56.392  0.00  0.00    +0.000 C 
ATOM     33  N   MET D   6      16.397  14.334  56.495  0.00  0.00    +0.000 N 
ATOM     34  CA  MET D   6      17.572  14.921  57.125  0.00  0.00    +0.000 C 
ATOM     35  C   MET D   6      17.316  16.400  57.373  0.00  0.00    +0.000 C 
ATOM     36  O   MET D   6      16.902  17.120  56.460  0.00  0.00    +0.000 OA
ATOM     37  CB  MET D   6      18.818  14.731  56.255  0.00  0.00    +0.000 C 
ATOM     38  CG  MET D   6      20.068  15.348  56.836  0.00  0.00    +0.000 C 
ATOM     39  SD  MET D   6      20.338  14.832  58.535  0.00  0.00    +0.000 S 
ATOM     40  CE  MET D   6      21.450  16.119  59.094  0.00  0.00    +0.000 C 
ATOM     41  N   GLU D   7      17.588  16.850  58.597  0.00  0.00    +0.000 N 
ATOM     42  CA  GLU D   7      17.146  18.158  59.086  0.00  0.00    +0.000 C 
ATOM     43  C   GLU D   7      18.125  19.286  58.787  0.00  0.00    +0.000 C 
ATOM     44  O   GLU D   7      18.298  20.180  59.622  0.00  0.00    +0.000 OA
ATOM     45  CB  GLU D   7      16.880  18.066  60.583  0.00  0.00    +0.000 C 
ATOM     46  CG  GLU D   7      18.112  17.759  61.428  0.00  0.00    +0.000 C 
ATOM     47  CD  GLU D   7      18.270  16.285  61.721  0.00  0.00    +0.000 C 
ATOM     48  OE1 GLU D   7      17.452  15.484  61.221  0.00  0.00    +0.000 OA
ATOM     49  OE2 GLU D   7      19.216  15.924  62.453  0.00  0.00    +0.000 OA
ATOM     50  H   PHE D   1      17.883   9.455  47.731  0.00  0.00    +0.000 HD
ATOM     51  H   PHE D   1      16.864   8.290  48.346  0.00  0.00    +0.000 HD
ATOM     52  H   PHE D   1      18.488   7.966  48.167  0.00  0.00    +0.000 HD
ATOM     53  H   ALA D   2      19.797   8.339  51.423  0.00  0.00    +0.000 HD
ATOM     54  H   GLY D   4      15.446   8.091  57.093  0.00  0.00    +0.000 HD
ATOM     55  H   ALA D   5      15.284  10.767  56.861  0.00  0.00    +0.000 HD
ATOM     56  H   MET D   6      15.882  14.873  55.852  0.00  0.00    +0.000 HD
ATOM     57  H   GLU D   7      18.111  16.276  59.202  0.00  0.00    +0.000 HD
TER 
REMARK  Name = /data/user_data/xianyang/t3-aimnet-affinity-balanced/L2/Q6P179/pocket.pdb
REMARK                            x       y       z     vdW  Elec       q    Type
REMARK                         _______ _______ _______ _____ _____    ______ ____
ATOM      1  N   TRP E   1       2.062   9.064  57.888  0.00  0.00    +0.000 N 
ATOM      2  CA  TRP E   1       3.522   8.953  57.914  0.00  0.00    +0.000 C 
ATOM      3  C   TRP E   1       4.172  10.237  57.423  0.00  0.00    +0.000 C 
ATOM      4  O   TRP E   1       5.174  10.688  57.990  0.00  0.00    +0.000 OA
ATOM      5  CB  TRP E   1       3.978   7.762  57.072  0.00  0.00    +0.000 C 
ATOM      6  CG  TRP E   1       5.457   7.694  56.843  0.00  0.00    +0.000 C 
ATOM      7  CD1 TRP E   1       6.098   7.931  55.672  0.00  0.00    +0.000 C 
ATOM      8  CD2 TRP E   1       6.475   7.343  57.796  0.00  0.00    +0.000 C 
ATOM      9  NE1 TRP E   1       7.449   7.773  55.831  0.00  0.00    +0.000 NA
ATOM     10  CE2 TRP E   1       7.708   7.410  57.125  0.00  0.00    +0.000 C 
ATOM     11  CE3 TRP E   1       6.463   6.988  59.151  0.00  0.00    +0.000 C 
ATOM     12  CZ2 TRP E   1       8.922   7.137  57.754  0.00  0.00    +0.000 C 
ATOM     13  CZ3 TRP E   1       7.678   6.715  59.778  0.00  0.00    +0.000 C 
ATOM     14  CH2 TRP E   1       8.887   6.792  59.076  0.00  0.00    +0.000 C 
ATOM     15  H   TRP E   1       1.649   8.193  58.221  0.00  0.00    +0.000 HD
ATOM     16  H   TRP E   1       1.752   9.245  56.933  0.00  0.00    +0.000 HD
ATOM     17  H   TRP E   1       1.769   9.832  58.492  0.00  0.00    +0.000 HD
TER 
REMARK  Name = /data/user_data/xianyang/t3-aimnet-affinity-balanced/L2/Q6P179/pocket.pdb
REMARK                            x       y       z     vdW  Elec       q    Type
REMARK                         _______ _______ _______ _____ _____    ______ ____
ATOM      1  N   ARG F   1       3.982  12.737  60.122  0.00  0.00    +0.000 N 
ATOM      2  CA  ARG F   1       4.962  12.401  61.150  0.00  0.00    +0.000 C 
ATOM      3  C   ARG F   1       6.351  12.904  60.776  0.00  0.00    +0.000 C 
ATOM      4  O   ARG F   1       7.022  13.562  61.579  0.00  0.00    +0.000 OA
ATOM      5  CB  ARG F   1       4.989  10.889  61.376  0.00  0.00    +0.000 C 
ATOM      6  CG  ARG F   1       3.859  10.346  62.229  0.00  0.00    +0.000 C 
ATOM      7  CD  ARG F   1       4.027   8.849  62.420  0.00  0.00    +0.000 C 
ATOM      8  NE  ARG F   1       5.323   8.525  63.003  0.00  0.00    +0.000 N 
ATOM      9  CZ  ARG F   1       5.778   7.291  63.177  0.00  0.00    +0.000 C 
ATOM     10  NH1 ARG F   1       5.062   6.235  62.829  0.00  0.00    +0.000 N 
ATOM     11  NH2 ARG F   1       6.986   7.113  63.706  0.00  0.00    +0.000 N 
ATOM     12  N   VAL F   2       6.794  12.612  59.550  0.00  0.00    +0.000 N 
ATOM     13  CA  VAL F   2       8.157  12.946  59.149  0.00  0.00    +0.000 C 
ATOM     14  C   VAL F   2       8.338  14.455  59.048  0.00  0.00    +0.000 C 
ATOM     15  O   VAL F   2       9.395  14.992  59.402  0.00  0.00    +0.000 OA
ATOM     16  CB  VAL F   2       8.510  12.242  57.826  0.00  0.00    +0.000 C 
ATOM     17  CG1 VAL F   2       9.922  12.601  57.392  0.00  0.00    +0.000 C 
ATOM     18  CG2 VAL F   2       8.372  10.737  57.980  0.00  0.00    +0.000 C 
ATOM     19  H   ARG F   1       3.972  13.747  59.979  0.00  0.00    +0.000 HD
ATOM     20  H   ARG F   1       3.057  12.426  60.420  0.00  0.00    +0.000 HD
ATOM     21  H   ARG F   1       4.232  12.272  59.249  0.00  0.00    +0.000 HD
ATOM     22  H   ARG F   1       5.899   9.271  63.286  0.00  0.00    +0.000 HD
ATOM     23  H   ARG F   1       4.167   6.355  62.437  0.00  0.00    +0.000 HD
ATOM     24  H   ARG F   1       5.424   5.329  62.962  0.00  0.00    +0.000 HD
ATOM     25  H   ARG F   1       7.335   6.202  63.840  0.00  0.00    +0.000 HD
ATOM     26  H   ARG F   1       7.530   7.892  63.963  0.00  0.00    +0.000 HD
ATOM     27  H   VAL F   2       6.194  12.166  58.909  0.00  0.00    +0.000 HD
TER 
REMARK  Name = /data/user_data/xianyang/t3-aimnet-affinity-balanced/L2/Q6P179/pocket.pdb
REMARK                            x       y       z     vdW  Elec       q    Type
REMARK                         _______ _______ _______ _____ _____    ______ ____
ATOM      1  N   HIS G   1       8.534  15.704  62.628  0.00  0.00    +0.000 N 
ATOM      2  CA  HIS G   1       9.826  15.323  63.190  0.00  0.00    +0.000 C 
ATOM      3  C   HIS G   1      10.938  16.233  62.683  0.00  0.00    +0.000 C 
ATOM      4  O   HIS G   1      11.754  16.733  63.466  0.00  0.00    +0.000 OA
ATOM      5  CB  HIS G   1      10.120  13.859  62.855  0.00  0.00    +0.000 C 
ATOM      6  CG  HIS G   1      11.491  13.404  63.251  0.00  0.00    +0.000 A 
ATOM      7  ND1 HIS G   1      11.717  12.573  64.327  0.00  0.00    +0.000 N 
ATOM      8  CD2 HIS G   1      12.704  13.643  62.700  0.00  0.00    +0.000 A 
ATOM      9  CE1 HIS G   1      13.012  12.333  64.431  0.00  0.00    +0.000 A 
ATOM     10  NE2 HIS G   1      13.633  12.971  63.456  0.00  0.00    +0.000 NA
ATOM     11  N   GLU G   2      10.989  16.454  61.368  0.00  0.00    +0.000 N 
ATOM     12  CA  GLU G   2      12.066  17.250  60.787  0.00  0.00    +0.000 C 
ATOM     13  C   GLU G   2      11.948  18.717  61.178  0.00  0.00    +0.000 C 
ATOM     14  O   GLU G   2      12.962  19.394  61.386  0.00  0.00    +0.000 OA
ATOM     15  CB  GLU G   2      12.063  17.093  59.268  0.00  0.00    +0.000 C 
ATOM     16  CG  GLU G   2      12.457  15.706  58.797  0.00  0.00    +0.000 C 
ATOM     17  CD  GLU G   2      13.750  15.212  59.423  0.00  0.00    +0.000 C 
ATOM     18  OE1 GLU G   2      14.704  16.009  59.531  0.00  0.00    +0.000 OA
ATOM     19  OE2 GLU G   2      13.812  14.027  59.814  0.00  0.00    +0.000 OA
ATOM     20  H   HIS G   1       8.340  16.680  62.852  0.00  0.00    +0.000 HD
ATOM     21  H   HIS G   1       7.803  15.112  63.024  0.00  0.00    +0.000 HD
ATOM     22  H   HIS G   1       8.556  15.586  61.615  0.00  0.00    +0.000 HD
ATOM     23  H   HIS G   1      11.022  12.214  64.925  0.00  0.00    +0.000 HD
ATOM     24  H   GLU G   2      10.293  16.076  60.783  0.00  0.00    +0.000 HD
TER 
REMARK  Name = /data/user_data/xianyang/t3-aimnet-affinity-balanced/L2/Q6P179/pocket.pdb
REMARK                            x       y       z     vdW  Elec       q    Type
REMARK                         _______ _______ _______ _____ _____    ______ ____
ATOM      1  N   HIS H   1      13.183  19.248  64.631  0.00  0.00    +0.000 N 
ATOM      2  CA  HIS H   1      14.642  19.223  64.664  0.00  0.00    +0.000 C 
ATOM      3  C   HIS H   1      15.243  20.613  64.514  0.00  0.00    +0.000 C 
ATOM      4  O   HIS H   1      16.375  20.847  64.953  0.00  0.00    +0.000 OA
ATOM      5  CB  HIS H   1      15.173  18.312  63.563  0.00  0.00    +0.000 C 
ATOM      6  CG  HIS H   1      15.540  16.942  64.034  0.00  0.00    +0.000 A 
ATOM      7  ND1 HIS H   1      16.669  16.691  64.784  0.00  0.00    +0.000 N 
ATOM      8  CD2 HIS H   1      14.931  15.746  63.858  0.00  0.00    +0.000 A 
ATOM      9  CE1 HIS H   1      16.737  15.400  65.053  0.00  0.00    +0.000 A 
ATOM     10  NE2 HIS H   1      15.694  14.805  64.504  0.00  0.00    +0.000 NA
ATOM     11  H   HIS H   1      12.824  18.299  64.734  0.00  0.00    +0.000 HD
ATOM     12  H   HIS H   1      12.870  19.635  63.741  0.00  0.00    +0.000 HD
ATOM     13  H   HIS H   1      12.836  19.828  65.395  0.00  0.00    +0.000 HD
ATOM     14  H   HIS H   1      17.322  17.368  65.074  0.00  0.00    +0.000 HD
TER 
REMARK  Name = /data/user_data/xianyang/t3-aimnet-affinity-balanced/L2/Q6P179/pocket.pdb
REMARK                            x       y       z     vdW  Elec       q    Type
REMARK                         _______ _______ _______ _____ _____    ______ ____
ATOM      1  N   GLU I   1      17.369  13.402  68.831  0.00  0.00    +0.000 N 
ATOM      2  CA  GLU I   1      16.461  12.447  68.205  0.00  0.00    +0.000 C 
ATOM      3  C   GLU I   1      15.286  12.122  69.120  0.00  0.00    +0.000 C 
ATOM      4  O   GLU I   1      14.124  12.192  68.701  0.00  0.00    +0.000 OA
ATOM      5  CB  GLU I   1      17.224  11.178  67.824  0.00  0.00    +0.000 C 
ATOM      6  CG  GLU I   1      18.373  11.415  66.848  0.00  0.00    +0.000 C 
ATOM      7  CD  GLU I   1      17.934  12.055  65.540  0.00  0.00    +0.000 C 
ATOM      8  OE2 GLU I   1      16.829  11.738  65.054  0.00  0.00    +0.000 OA
ATOM      9  OE1 GLU I   1      18.698  12.883  64.998  0.00  0.00    +0.000 OA
ATOM     10  H   GLU I   1      18.144  13.600  68.198  0.00  0.00    +0.000 HD
ATOM     11  H   GLU I   1      17.732  13.008  69.699  0.00  0.00    +0.000 HD
ATOM     12  H   GLU I   1      16.866  14.266  69.034  0.00  0.00    +0.000 HD
TER 
REMARK  Name = /data/user_data/xianyang/t3-aimnet-affinity-balanced/L2/Q6P179/pocket.pdb
REMARK                            x       y       z     vdW  Elec       q    Type
REMARK                         _______ _______ _______ _____ _____    ______ ____
ATOM      1  N   LYS J   1      11.568  12.774  68.194  0.00  0.00    +0.000 N 
ATOM      2  CA  LYS J   1      10.594  11.687  68.213  0.00  0.00    +0.000 C 
ATOM      3  C   LYS J   1       9.426  12.015  69.136  0.00  0.00    +0.000 C 
ATOM      4  O   LYS J   1       8.262  11.786  68.786  0.00  0.00    +0.000 OA
ATOM      5  CB  LYS J   1      11.274  10.387  68.643  0.00  0.00    +0.000 C 
ATOM      6  CG  LYS J   1      10.467   9.133  68.365  0.00  0.00    +0.000 C 
ATOM      7  CD  LYS J   1      10.441   8.817  66.879  0.00  0.00    +0.000 C 
ATOM      8  CE  LYS J   1       9.801   7.466  66.616  0.00  0.00    +0.000 C 
ATOM      9  NZ  LYS J   1       8.357   7.593  66.288  0.00  0.00    +0.000 N 
ATOM     10  H   LYS J   1      12.338  12.530  67.571  0.00  0.00    +0.000 HD
ATOM     11  H   LYS J   1      11.928  12.924  69.136  0.00  0.00    +0.000 HD
ATOM     12  H   LYS J   1      11.119  13.627  67.862  0.00  0.00    +0.000 HD
ATOM     13  H   LYS J   1       8.248   8.151  65.441  0.00  0.00    +0.000 HD
ATOM     14  H   LYS J   1       7.872   8.049  67.061  0.00  0.00    +0.000 HD
ATOM     15  H   LYS J   1       7.960   6.666  66.137  0.00  0.00    +0.000 HD
TER 
REMARK  Name = /data/user_data/xianyang/t3-aimnet-affinity-balanced/L2/Q6P179/pocket.pdb
REMARK                            x       y       z     vdW  Elec       q    Type
REMARK                         _______ _______ _______ _____ _____    ______ ____
ATOM      1  N   GLU K   1       6.954  14.708  67.790  0.00  0.00    +0.000 N 
ATOM      2  CA  GLU K   1       5.939  14.207  66.866  0.00  0.00    +0.000 C 
ATOM      3  C   GLU K   1       4.568  14.168  67.531  0.00  0.00    +0.000 C 
ATOM      4  O   GLU K   1       3.587  14.697  66.996  0.00  0.00    +0.000 OA
ATOM      5  CB  GLU K   1       6.322  12.816  66.353  0.00  0.00    +0.000 C 
ATOM      6  CG  GLU K   1       7.595  12.771  65.520  0.00  0.00    +0.000 C 
ATOM      7  CD  GLU K   1       7.906  11.376  65.000  0.00  0.00    +0.000 C 
ATOM      8  OE2 GLU K   1       6.975  10.546  64.931  0.00  0.00    +0.000 OA
ATOM      9  OE1 GLU K   1       9.079  11.107  64.663  0.00  0.00    +0.000 OA
ATOM     10  H   GLU K   1       7.861  14.725  67.323  0.00  0.00    +0.000 HD
ATOM     11  H   GLU K   1       7.003  14.097  68.605  0.00  0.00    +0.000 HD
ATOM     12  H   GLU K   1       6.707  15.652  68.087  0.00  0.00    +0.000 HD
TER 
REMARK  Name = /data/user_data/xianyang/t3-aimnet-affinity-balanced/L2/Q6P179/pocket.pdb
REMARK                            x       y       z     vdW  Elec       q    Type
REMARK                         _______ _______ _______ _____ _____    ______ ____
ATOM      1  N   GLN L   1      27.367   5.864  64.314  0.00  0.00    +0.000 N 
ATOM      2  CA  GLN L   1      26.195   5.503  63.524  0.00  0.00    +0.000 C 
ATOM      3  C   GLN L   1      25.287   4.550  64.291  0.00  0.00    +0.000 C 
ATOM      4  O   GLN L   1      24.059   4.616  64.165  0.00  0.00    +0.000 OA
ATOM      5  CB  GLN L   1      26.630   4.884  62.196  0.00  0.00    +0.000 C 
ATOM      6  CG  GLN L   1      27.285   5.865  61.239  0.00  0.00    +0.000 C 
ATOM      7  CD  GLN L   1      27.614   5.237  59.901  0.00  0.00    +0.000 C 
ATOM      8  OE1 GLN L   1      28.329   4.238  59.832  0.00  0.00    +0.000 OA
ATOM      9  NE2 GLN L   1      27.093   5.821  58.828  0.00  0.00    +0.000 N 
ATOM     10  N   GLU L   2      25.874   3.654  65.087  0.00  0.00    +0.000 N 
ATOM     11  CA  GLU L   2      25.083   2.722  65.881  0.00  0.00    +0.000 C 
ATOM     12  C   GLU L   2      24.247   3.428  66.941  0.00  0.00    +0.000 C 
ATOM     13  O   GLU L   2      23.235   2.873  67.383  0.00  0.00    +0.000 OA
ATOM     14  CB  GLU L   2      25.997   1.689  66.542  0.00  0.00    +0.000 C 
ATOM     15  CG  GLU L   2      26.546   0.639  65.589  0.00  0.00    +0.000 C 
ATOM     16  CD  GLU L   2      27.391  -0.402  66.299  0.00  0.00    +0.000 C 
ATOM     17  OE2 GLU L   2      28.345  -0.012  67.006  0.00  0.00    +0.000 OA
ATOM     18  OE1 GLU L   2      27.100  -1.609  66.155  0.00  0.00    +0.000 OA
ATOM     19  H   GLN L   1      27.956   6.501  63.777  0.00  0.00    +0.000 HD
ATOM     20  H   GLN L   1      27.896   5.022  64.541  0.00  0.00    +0.000 HD
ATOM     21  H   GLN L   1      27.069   6.321  65.176  0.00  0.00    +0.000 HD
ATOM     22  H   GLN L   1      27.274   5.455  57.932  0.00  0.00    +0.000 HD
ATOM     23  H   GLN L   1      26.526   6.620  58.929  0.00  0.00    +0.000 HD
ATOM     24  H   GLU L   2      26.857   3.622  65.139  0.00  0.00    +0.000 HD
TER 
REMARK  Name = /data/user_data/xianyang/t3-aimnet-affinity-balanced/L2/Q6P179/pocket.pdb
REMARK                            x       y       z     vdW  Elec       q    Type
REMARK                         _______ _______ _______ _____ _____    ______ ____
ATOM      1  N   PHE M   1      22.263   5.712  66.546  0.00  0.00    +0.000 N 
ATOM      2  CA  PHE M   1      20.953   6.008  65.964  0.00  0.00    +0.000 C 
ATOM      3  C   PHE M   1      20.145   4.715  65.918  0.00  0.00    +0.000 C 
ATOM      4  O   PHE M   1      19.982   4.076  64.876  0.00  0.00    +0.000 OA
ATOM      5  CB  PHE M   1      21.106   6.625  64.579  0.00  0.00    +0.000 C 
ATOM      6  CG  PHE M   1      21.779   7.971  64.577  0.00  0.00    +0.000 A 
ATOM      7  CD2 PHE M   1      23.159   8.072  64.630  0.00  0.00    +0.000 A 
ATOM      8  CD1 PHE M   1      21.030   9.133  64.497  0.00  0.00    +0.000 A 
ATOM      9  CE2 PHE M   1      23.779   9.308  64.622  0.00  0.00    +0.000 A 
ATOM     10  CE1 PHE M   1      21.644  10.372  64.487  0.00  0.00    +0.000 A 
ATOM     11  CZ  PHE M   1      23.021  10.459  64.548  0.00  0.00    +0.000 A 
ATOM     12  N   ASP M   2      19.627   4.326  67.081  0.00  0.00    +0.000 N 
ATOM     13  CA  ASP M   2      18.837   3.111  67.223  0.00  0.00    +0.000 C 
ATOM     14  C   ASP M   2      17.528   3.441  67.932  0.00  0.00    +0.000 C 
ATOM     15  O   ASP M   2      17.268   4.591  68.300  0.00  0.00    +0.000 OA
ATOM     16  CB  ASP M   2      19.615   2.022  67.976  0.00  0.00    +0.000 C 
ATOM     17  CG  ASP M   2      20.059   2.463  69.361  0.00  0.00    +0.000 C 
ATOM     18  OD1 ASP M   2      19.792   3.622  69.744  0.00  0.00    +0.000 OA
ATOM     19  OD2 ASP M   2      20.674   1.641  70.072  0.00  0.00    +0.000 OA
ATOM     20  N   GLU M   3      16.693   2.412  68.114  0.00  0.00    +0.000 N 
ATOM     21  CA  GLU M   3      15.379   2.619  68.714  0.00  0.00    +0.000 C 
ATOM     22  C   GLU M   3      15.483   3.205  70.116  0.00  0.00    +0.000 C 
ATOM     23  O   GLU M   3      14.560   3.891  70.570  0.00  0.00    +0.000 OA
ATOM     24  CB  GLU M   3      14.600   1.301  68.747  0.00  0.00    +0.000 C 
ATOM     25  CG  GLU M   3      14.156   0.795  67.384  0.00  0.00    +0.000 C 
ATOM     26  CD  GLU M   3      15.132  -0.194  66.777  0.00  0.00    +0.000 C 
ATOM     27  OE2 GLU M   3      16.339  -0.111  67.088  0.00  0.00    +0.000 OA
ATOM     28  OE1 GLU M   3      14.693  -1.052  65.982  0.00  0.00    +0.000 OA
ATOM     29  H   PHE M   1      22.819   6.566  66.585  0.00  0.00    +0.000 HD
ATOM     30  H   PHE M   1      22.743   5.021  65.970  0.00  0.00    +0.000 HD
ATOM     31  H   PHE M   1      22.141   5.343  67.489  0.00  0.00    +0.000 HD
ATOM     32  H   ASP M   2      19.784   4.883  67.878  0.00  0.00    +0.000 HD
ATOM     33  H   GLU M   3      16.967   1.507  67.841  0.00  0.00    +0.000 HD
TER 
REMARK  Name = /data/user_data/xianyang/t3-aimnet-affinity-balanced/L2/Q6P179/pocket.pdb
REMARK                            x       y       z     vdW  Elec       q    Type
REMARK                         _______ _______ _______ _____ _____    ______ ____
ATOM      1  N   TYR N   1      16.018   7.138  70.032  0.00  0.00    +0.000 N 
ATOM      2  CA  TYR N   1      14.805   7.753  69.509  0.00  0.00    +0.000 C 
ATOM      3  C   TYR N   1      13.619   7.525  70.437  0.00  0.00    +0.000 C 
ATOM      4  O   TYR N   1      13.188   8.441  71.145  0.00  0.00    +0.000 OA
ATOM      5  CB  TYR N   1      14.481   7.203  68.118  0.00  0.00    +0.000 C 
ATOM      6  CG  TYR N   1      15.377   7.707  67.012  0.00  0.00    +0.000 A 
ATOM      7  CD2 TYR N   1      16.724   7.373  66.971  0.00  0.00    +0.000 A 
ATOM      8  CD1 TYR N   1      14.869   8.505  65.997  0.00  0.00    +0.000 A 
ATOM      9  CE2 TYR N   1      17.541   7.831  65.959  0.00  0.00    +0.000 A 
ATOM     10  CE1 TYR N   1      15.676   8.963  64.980  0.00  0.00    +0.000 A 
ATOM     11  CZ  TYR N   1      17.012   8.625  64.966  0.00  0.00    +0.000 A 
ATOM     12  OH  TYR N   1      17.822   9.081  63.953  0.00  0.00    +0.000 OA
ATOM     13  H   TYR N   1      16.791   7.309  69.388  0.00  0.00    +0.000 HD
ATOM     14  H   TYR N   1      15.874   6.133  70.131  0.00  0.00    +0.000 HD
ATOM     15  H   TYR N   1      16.238   7.541  70.943  0.00  0.00    +0.000 HD
ATOM     16  H   TYR N   1      17.466   9.621  63.276  0.00  0.00    +0.000 HD
TER 
REMARK  Name = /data/user_data/xianyang/t3-aimnet-affinity-balanced/L2/Q6P179/pocket.pdb
REMARK                            x       y       z     vdW  Elec       q    Type
REMARK                         _______ _______ _______ _____ _____    ______ ____
ATOM      1  N   GLY O   1      28.016   0.393  59.712  0.00  0.00    +0.000 N 
ATOM      2  CA  GLY O   1      27.081   0.909  60.688  0.00  0.00    +0.000 C 
ATOM      3  C   GLY O   1      25.836   1.550  60.128  0.00  0.00    +0.000 C 
ATOM      4  O   GLY O   1      25.025   2.077  60.895  0.00  0.00    +0.000 OA
ATOM      5  N   SER O   2      25.663   1.531  58.810  0.00  0.00    +0.000 N 
ATOM      6  CA  SER O   2      24.482   2.125  58.201  0.00  0.00    +0.000 C 
ATOM      7  C   SER O   2      23.219   1.405  58.657  0.00  0.00    +0.000 C 
ATOM      8  O   SER O   2      23.238   0.220  59.000  0.00  0.00    +0.000 OA
ATOM      9  CB  SER O   2      24.591   2.080  56.678  0.00  0.00    +0.000 C 
ATOM     10  OG  SER O   2      24.421   0.757  56.199  0.00  0.00    +0.000 OA
ATOM     11  N   TYR O   3      22.107   2.144  58.661  0.00  0.00    +0.000 N 
ATOM     12  CA  TYR O   3      20.825   1.555  59.030  0.00  0.00    +0.000 C 
ATOM     13  C   TYR O   3      20.403   0.468  58.051  0.00  0.00    +0.000 C 
ATOM     14  O   TYR O   3      19.684  -0.463  58.431  0.00  0.00    +0.000 OA
ATOM     15  CB  TYR O   3      19.757   2.647  59.112  0.00  0.00    +0.000 C 
ATOM     16  CG  TYR O   3      18.434   2.190  59.687  0.00  0.00    +0.000 A 
ATOM     17  CD2 TYR O   3      18.349   1.695  60.982  0.00  0.00    +0.000 A 
ATOM     18  CD1 TYR O   3      17.270   2.257  58.935  0.00  0.00    +0.000 A 
ATOM     19  CE2 TYR O   3      17.138   1.278  61.509  0.00  0.00    +0.000 A 
ATOM     20  CE1 TYR O   3      16.057   1.843  59.452  0.00  0.00    +0.000 A 
ATOM     21  CZ  TYR O   3      15.996   1.355  60.739  0.00  0.00    +0.000 A 
ATOM     22  OH  TYR O   3      14.789   0.942  61.254  0.00  0.00    +0.000 OA
ATOM     23  H   GLY O   1      28.817  -0.017  60.192  0.00  0.00    +0.000 HD
ATOM     24  H   GLY O   1      28.333   1.153  59.110  0.00  0.00    +0.000 HD
ATOM     25  H   GLY O   1      27.557  -0.321  59.146  0.00  0.00    +0.000 HD
ATOM     26  H   SER O   2      26.344   1.109  58.237  0.00  0.00    +0.000 HD
ATOM     27  H   SER O   2      23.542   0.433  56.450  0.00  0.00    +0.000 HD
ATOM     28  H   TYR O   3      22.153   3.096  58.412  0.00  0.00    +0.000 HD
ATOM     29  H   TYR O   3      14.014   0.995  60.730  0.00  0.00    +0.000 HD
TER 
REMARK  Name = /data/user_data/xianyang/t3-aimnet-affinity-balanced/L2/Q6P179/pocket.pdb
REMARK                            x       y       z     vdW  Elec       q    Type
REMARK                         _______ _______ _______ _____ _____    ______ ____
ATOM      1  N   ARG P   1      22.163  -2.878  58.983  0.00  0.00    +0.000 N 
ATOM      2  CA  ARG P   1      21.541  -3.352  60.215  0.00  0.00    +0.000 C 
ATOM      3  C   ARG P   1      20.152  -3.923  59.955  0.00  0.00    +0.000 C 
ATOM      4  O   ARG P   1      19.796  -4.977  60.494  0.00  0.00    +0.000 OA
ATOM      5  CB  ARG P   1      21.477  -2.215  61.233  0.00  0.00    +0.000 C 
ATOM      6  CG  ARG P   1      22.782  -1.981  61.976  0.00  0.00    +0.000 C 
ATOM      7  CD  ARG P   1      22.804  -0.610  62.627  0.00  0.00    +0.000 C 
ATOM      8  NE  ARG P   1      21.488  -0.215  63.112  0.00  0.00    +0.000 N 
ATOM      9  CZ  ARG P   1      21.218   0.954  63.676  0.00  0.00    +0.000 C 
ATOM     10  NH1 ARG P   1      22.153   1.877  63.836  0.00  0.00    +0.000 N 
ATOM     11  NH2 ARG P   1      19.979   1.205  64.089  0.00  0.00    +0.000 N 
ATOM     12  H   ARG P   1      22.203  -3.641  58.307  0.00  0.00    +0.000 HD
ATOM     13  H   ARG P   1      23.108  -2.551  59.183  0.00  0.00    +0.000 HD
ATOM     14  H   ARG P   1      21.612  -2.111  58.597  0.00  0.00    +0.000 HD
ATOM     15  H   ARG P   1      20.750  -0.859  63.014  0.00  0.00    +0.000 HD
ATOM     16  H   ARG P   1      23.074   1.703  63.534  0.00  0.00    +0.000 HD
ATOM     17  H   ARG P   1      21.928   2.738  64.257  0.00  0.00    +0.000 HD
ATOM     18  H   ARG P   1      19.275   0.526  63.975  0.00  0.00    +0.000 HD
ATOM     19  H   ARG P   1      19.766   2.070  64.508  0.00  0.00    +0.000 HD
TER 
