REMARK  Name = /data/user_data/xianyang/t3-aimnet-affinity-balanced/L1/P0C6U8/pocket.pdb
REMARK                            x       y       z     vdW  Elec       q    Type
REMARK                         _______ _______ _______ _____ _____    ______ ____
ATOM      1  N   THR A   1      41.432 -57.243  35.869  0.00  0.00    +0.000 N 
ATOM      2  CA  THR A   1      42.190 -56.042  35.573  0.00  0.00    +0.000 C 
ATOM      3  C   THR A   1      41.880 -55.592  34.150  0.00  0.00    +0.000 C 
ATOM      4  O   THR A   1      41.757 -56.410  33.234  0.00  0.00    +0.000 OA
ATOM      5  CB  THR A   1      43.700 -56.282  35.754  0.00  0.00    +0.000 C 
ATOM      6  OG1 THR A   1      43.987 -56.510  37.142  0.00  0.00    +0.000 OA
ATOM      7  CG2 THR A   1      44.494 -55.076  35.281  0.00  0.00    +0.000 C 
ATOM      8  N   LEU A   2      41.741 -54.285  33.984  0.00  0.00    +0.000 N 
ATOM      9  CA  LEU A   2      41.606 -53.675  32.674  0.00  0.00    +0.000 C 
ATOM     10  C   LEU A   2      42.092 -52.244  32.796  0.00  0.00    +0.000 C 
ATOM     11  O   LEU A   2      42.548 -51.814  33.861  0.00  0.00    +0.000 OA
ATOM     12  CB  LEU A   2      40.165 -53.754  32.168  0.00  0.00    +0.000 C 
ATOM     13  CG  LEU A   2      39.020 -53.474  33.151  0.00  0.00    +0.000 C 
ATOM     14  CD2 LEU A   2      38.979 -52.014  33.645  0.00  0.00    +0.000 C 
ATOM     15  CD1 LEU A   2      37.719 -53.834  32.474  0.00  0.00    +0.000 C 
ATOM     16  H   THR A   1      40.437 -57.057  35.742  0.00  0.00    +0.000 HD
ATOM     17  H   THR A   1      41.604 -57.525  36.834  0.00  0.00    +0.000 HD
ATOM     18  H   THR A   1      41.721 -57.992  35.239  0.00  0.00    +0.000 HD
ATOM     19  H   THR A   1      43.730 -55.730  37.658  0.00  0.00    +0.000 HD
ATOM     20  H   LEU A   2      41.729 -53.705  34.780  0.00  0.00    +0.000 HD
TER 
REMARK  Name = /data/user_data/xianyang/t3-aimnet-affinity-balanced/L1/P0C6U8/pocket.pdb
REMARK                            x       y       z     vdW  Elec       q    Type
REMARK                         _______ _______ _______ _____ _____    ______ ____
ATOM      1  N   HIS B   1      31.978 -53.324  33.320  0.00  0.00    +0.000 N 
ATOM      2  CA  HIS B   1      32.066 -54.763  33.538  0.00  0.00    +0.000 C 
ATOM      3  C   HIS B   1      33.305 -55.188  34.312  0.00  0.00    +0.000 C 
ATOM      4  O   HIS B   1      33.483 -56.394  34.528  0.00  0.00    +0.000 OA
ATOM      5  CB  HIS B   1      31.981 -55.529  32.208  0.00  0.00    +0.000 C 
ATOM      6  CG  HIS B   1      33.182 -55.393  31.301  0.00  0.00    +0.000 A 
ATOM      7  ND1 HIS B   1      34.464 -55.724  31.689  0.00  0.00    +0.000 N 
ATOM      8  CD2 HIS B   1      33.269 -55.044  29.993  0.00  0.00    +0.000 A 
ATOM      9  CE1 HIS B   1      35.295 -55.549  30.669  0.00  0.00    +0.000 A 
ATOM     10  NE2 HIS B   1      34.596 -55.133  29.628  0.00  0.00    +0.000 NA
ATOM     11  H   HIS B   1      31.128 -53.111  32.798  0.00  0.00    +0.000 HD
ATOM     12  H   HIS B   1      32.791 -53.010  32.789  0.00  0.00    +0.000 HD
ATOM     13  H   HIS B   1      31.954 -52.845  34.220  0.00  0.00    +0.000 HD
ATOM     14  H   HIS B   1      34.723 -56.041  32.584  0.00  0.00    +0.000 HD
TER 
REMARK  Name = /data/user_data/xianyang/t3-aimnet-affinity-balanced/L1/P0C6U8/pocket.pdb
REMARK                            x       y       z     vdW  Elec       q    Type
REMARK                         _______ _______ _______ _____ _____    ______ ____
ATOM      1  N   CYS C   1      32.249 -57.068  37.404  0.00  0.00    +0.000 N 
ATOM      2  CA  CYS C   1      31.690 -58.409  37.323  0.00  0.00    +0.000 C 
ATOM      3  C   CYS C   1      32.685 -59.417  37.884  0.00  0.00    +0.000 C 
ATOM      4  O   CYS C   1      33.904 -59.230  37.805  0.00  0.00    +0.000 OA
ATOM      5  CB  CYS C   1      31.341 -58.781  35.881  0.00  0.00    +0.000 C 
ATOM      6  SG  CYS C   1      30.352 -57.569  34.971  0.00  0.00    +0.000 S 
ATOM      7  H   CYS C   1      31.579 -56.397  37.027  0.00  0.00    +0.000 HD
ATOM      8  H   CYS C   1      33.113 -57.026  36.863  0.00  0.00    +0.000 HD
ATOM      9  H   CYS C   1      32.447 -56.840  38.378  0.00  0.00    +0.000 HD
ATOM     10  H   CYS C   1      31.057 -56.413  34.843  0.00  0.00    +0.000 HD
TER 
REMARK  Name = /data/user_data/xianyang/t3-aimnet-affinity-balanced/L1/P0C6U8/pocket.pdb
REMARK                            x       y       z     vdW  Elec       q    Type
REMARK                         _______ _______ _______ _____ _____    ______ ____
ATOM      1  N   ASP D   1      29.086 -63.301  37.528  0.00  0.00    +0.000 N 
ATOM      2  CA  ASP D   1      28.213 -62.176  37.208  0.00  0.00    +0.000 C 
ATOM      3  C   ASP D   1      28.188 -61.831  35.726  0.00  0.00    +0.000 C 
ATOM      4  O   ASP D   1      27.235 -61.183  35.276  0.00  0.00    +0.000 OA
ATOM      5  CB  ASP D   1      28.630 -60.919  37.982  0.00  0.00    +0.000 C 
ATOM      6  CG  ASP D   1      28.778 -61.164  39.473  0.00  0.00    +0.000 C 
ATOM      7  OD2 ASP D   1      27.802 -61.641  40.097  0.00  0.00    +0.000 OA
ATOM      8  OD1 ASP D   1      29.862 -60.858  40.021  0.00  0.00    +0.000 OA
ATOM      9  N   MET D   2      29.206 -62.236  34.959  0.00  0.00    +0.000 N 
ATOM     10  CA  MET D   2      29.277 -61.841  33.557  0.00  0.00    +0.000 C 
ATOM     11  C   MET D   2      28.103 -62.384  32.745  0.00  0.00    +0.000 C 
ATOM     12  O   MET D   2      27.782 -61.825  31.691  0.00  0.00    +0.000 OA
ATOM     13  CB  MET D   2      30.624 -62.286  32.949  0.00  0.00    +0.000 C 
ATOM     14  CG  MET D   2      30.763 -63.789  32.685  0.00  0.00    +0.000 C 
ATOM     15  SD  MET D   2      32.472 -64.327  32.388  0.00  0.00    +0.000 S 
ATOM     16  CE  MET D   2      32.285 -66.115  32.490  0.00  0.00    +0.000 C 
ATOM     17  N   LEU D   3      27.425 -63.431  33.221  0.00  0.00    +0.000 N 
ATOM     18  CA  LEU D   3      26.406 -64.064  32.387  0.00  0.00    +0.000 C 
ATOM     19  C   LEU D   3      25.105 -63.259  32.345  0.00  0.00    +0.000 C 
ATOM     20  O   LEU D   3      24.408 -63.268  31.324  0.00  0.00    +0.000 OA
ATOM     21  CB  LEU D   3      26.161 -65.494  32.874  0.00  0.00    +0.000 C 
ATOM     22  CG  LEU D   3      25.366 -66.445  31.974  0.00  0.00    +0.000 C 
ATOM     23  CD2 LEU D   3      23.868 -66.356  32.243  0.00  0.00    +0.000 C 
ATOM     24  CD1 LEU D   3      25.673 -66.177  30.504  0.00  0.00    +0.000 C 
ATOM     25  H   ASP D   1      28.789 -64.123  37.002  0.00  0.00    +0.000 HD
ATOM     26  H   ASP D   1      29.033 -63.499  38.527  0.00  0.00    +0.000 HD
ATOM     27  H   ASP D   1      30.047 -63.067  37.279  0.00  0.00    +0.000 HD
ATOM     28  H   MET D   2      29.912 -62.804  35.343  0.00  0.00    +0.000 HD
ATOM     29  H   LEU D   3      27.610 -63.773  34.125  0.00  0.00    +0.000 HD
TER 
REMARK  Name = /data/user_data/xianyang/t3-aimnet-affinity-balanced/L1/P0C6U8/pocket.pdb
REMARK                            x       y       z     vdW  Elec       q    Type
REMARK                         _______ _______ _______ _____ _____    ______ ____
ATOM      1  N   PRO E   1      24.546 -59.711  34.379  0.00  0.00    +0.000 N 
ATOM      2  CA  PRO E   1      24.853 -58.788  35.478  0.00  0.00    +0.000 C 
ATOM      3  C   PRO E   1      23.753 -57.769  35.732  0.00  0.00    +0.000 C 
ATOM      4  O   PRO E   1      23.112 -57.261  34.813  0.00  0.00    +0.000 OA
ATOM      5  CB  PRO E   1      26.136 -58.094  35.005  0.00  0.00    +0.000 C 
ATOM      6  CG  PRO E   1      26.072 -58.173  33.509  0.00  0.00    +0.000 C 
ATOM      7  CD  PRO E   1      25.337 -59.426  33.166  0.00  0.00    +0.000 C 
ATOM      8  H   PRO E   1      24.747 -60.663  34.685  0.00  0.00    +0.000 HD
ATOM      9  H   PRO E   1      23.561 -59.595  34.142  0.00  0.00    +0.000 HD
TER 
REMARK  Name = /data/user_data/xianyang/t3-aimnet-affinity-balanced/L1/P0C6U8/pocket.pdb
REMARK                            x       y       z     vdW  Elec       q    Type
REMARK                         _______ _______ _______ _____ _____    ______ ____
ATOM      1  N   TYR F   1      24.010 -54.368  37.084  0.00  0.00    +0.000 N 
ATOM      2  CA  TYR F   1      25.146 -53.497  37.364  0.00  0.00    +0.000 C 
ATOM      3  C   TYR F   1      24.853 -52.527  38.499  0.00  0.00    +0.000 C 
ATOM      4  O   TYR F   1      25.761 -52.184  39.266  0.00  0.00    +0.000 OA
ATOM      5  CB  TYR F   1      25.560 -52.738  36.105  0.00  0.00    +0.000 C 
ATOM      6  CG  TYR F   1      26.370 -53.589  35.172  0.00  0.00    +0.000 A 
ATOM      7  CD2 TYR F   1      27.711 -53.860  35.436  0.00  0.00    +0.000 A 
ATOM      8  CD1 TYR F   1      25.794 -54.148  34.042  0.00  0.00    +0.000 A 
ATOM      9  CE2 TYR F   1      28.458 -54.656  34.586  0.00  0.00    +0.000 A 
ATOM     10  CE1 TYR F   1      26.532 -54.935  33.179  0.00  0.00    +0.000 A 
ATOM     11  CZ  TYR F   1      27.862 -55.190  33.456  0.00  0.00    +0.000 A 
ATOM     12  OH  TYR F   1      28.588 -55.987  32.606  0.00  0.00    +0.000 OA
ATOM     13  H   TYR F   1      24.247 -55.001  36.320  0.00  0.00    +0.000 HD
ATOM     14  H   TYR F   1      23.204 -53.801  36.819  0.00  0.00    +0.000 HD
ATOM     15  H   TYR F   1      23.784 -54.911  37.917  0.00  0.00    +0.000 HD
ATOM     16  H   TYR F   1      28.183 -56.348  31.842  0.00  0.00    +0.000 HD
TER 
REMARK  Name = /data/user_data/xianyang/t3-aimnet-affinity-balanced/L1/P0C6U8/pocket.pdb
REMARK                            x       y       z     vdW  Elec       q    Type
REMARK                         _______ _______ _______ _____ _____    ______ ____
ATOM      1  N   PHE G   1      42.635 -56.757  19.606  0.00  0.00    +0.000 N 
ATOM      2  CA  PHE G   1      42.518 -56.636  21.055  0.00  0.00    +0.000 C 
ATOM      3  C   PHE G   1      42.695 -58.007  21.692  0.00  0.00    +0.000 C 
ATOM      4  O   PHE G   1      42.024 -58.972  21.299  0.00  0.00    +0.000 OA
ATOM      5  CB  PHE G   1      41.159 -56.072  21.466  0.00  0.00    +0.000 C 
ATOM      6  CG  PHE G   1      40.935 -54.627  21.112  0.00  0.00    +0.000 A 
ATOM      7  CD2 PHE G   1      41.705 -53.620  21.671  0.00  0.00    +0.000 A 
ATOM      8  CD1 PHE G   1      39.917 -54.278  20.243  0.00  0.00    +0.000 A 
ATOM      9  CE2 PHE G   1      41.464 -52.297  21.358  0.00  0.00    +0.000 A 
ATOM     10  CE1 PHE G   1      39.676 -52.960  19.925  0.00  0.00    +0.000 A 
ATOM     11  CZ  PHE G   1      40.445 -51.962  20.493  0.00  0.00    +0.000 A 
ATOM     12  N   LEU G   2      43.579 -58.086  22.677  0.00  0.00    +0.000 N 
ATOM     13  CA  LEU G   2      43.827 -59.320  23.402  0.00  0.00    +0.000 C 
ATOM     14  C   LEU G   2      43.173 -59.234  24.774  0.00  0.00    +0.000 C 
ATOM     15  O   LEU G   2      42.535 -58.235  25.110  0.00  0.00    +0.000 OA
ATOM     16  CB  LEU G   2      45.329 -59.571  23.528  0.00  0.00    +0.000 C 
ATOM     17  CG  LEU G   2      46.051 -59.937  22.229  0.00  0.00    +0.000 C 
ATOM     18  CD2 LEU G   2      47.537 -60.190  22.497  0.00  0.00    +0.000 C 
ATOM     19  CD1 LEU G   2      45.383 -61.131  21.617  0.00  0.00    +0.000 C 
ATOM     20  N   ASN G   3      43.339 -60.298  25.560  0.00  0.00    +0.000 N 
ATOM     21  CA  ASN G   3      42.921 -60.277  26.961  0.00  0.00    +0.000 C 
ATOM     22  C   ASN G   3      43.559 -59.104  27.682  0.00  0.00    +0.000 C 
ATOM     23  O   ASN G   3      44.770 -58.893  27.588  0.00  0.00    +0.000 OA
ATOM     24  CB  ASN G   3      43.320 -61.569  27.660  0.00  0.00    +0.000 C 
ATOM     25  CG  ASN G   3      42.302 -62.669  27.468  0.00  0.00    +0.000 C 
ATOM     26  OD1 ASN G   3      41.107 -62.403  27.302  0.00  0.00    +0.000 OA
ATOM     27  ND2 ASN G   3      42.765 -63.917  27.495  0.00  0.00    +0.000 N 
ATOM     28  N   GLY G   4      42.747 -58.335  28.395  0.00  0.00    +0.000 N 
ATOM     29  CA  GLY G   4      43.234 -57.183  29.117  0.00  0.00    +0.000 C 
ATOM     30  C   GLY G   4      43.156 -55.872  28.368  0.00  0.00    +0.000 C 
ATOM     31  O   GLY G   4      43.537 -54.832  28.917  0.00  0.00    +0.000 OA
ATOM     32  N   SER G   5      42.655 -55.875  27.150  0.00  0.00    +0.000 N 
ATOM     33  CA  SER G   5      42.657 -54.652  26.373  0.00  0.00    +0.000 C 
ATOM     34  C   SER G   5      41.495 -53.736  26.709  0.00  0.00    +0.000 C 
ATOM     35  O   SER G   5      41.536 -52.552  26.354  0.00  0.00    +0.000 OA
ATOM     36  CB  SER G   5      42.653 -54.989  24.874  0.00  0.00    +0.000 C 
ATOM     37  OG  SER G   5      41.513 -55.750  24.532  0.00  0.00    +0.000 OA
ATOM     38  N   CYS G   6      40.475 -54.231  27.419  0.00  0.00    +0.000 N 
ATOM     39  CA  CYS G   6      39.320 -53.400  27.703  0.00  0.00    +0.000 C 
ATOM     40  C   CYS G   6      39.756 -52.109  28.373  0.00  0.00    +0.000 C 
ATOM     41  O   CYS G   6      40.721 -52.069  29.142  0.00  0.00    +0.000 OA
ATOM     42  CB  CYS G   6      38.297 -54.156  28.575  0.00  0.00    +0.000 C 
ATOM     43  SG  CYS G   6      37.627 -55.603  27.774  0.00  0.00    +0.000 S 
ATOM     44  N   GLY G   7      39.065 -51.029  28.044  0.00  0.00    +0.000 N 
ATOM     45  CA  GLY G   7      39.446 -49.741  28.519  0.00  0.00    +0.000 C 
ATOM     46  C   GLY G   7      40.364 -48.972  27.583  0.00  0.00    +0.000 C 
ATOM     47  O   GLY G   7      40.458 -47.745  27.689  0.00  0.00    +0.000 OA
ATOM     48  H   PHE G   1      42.517 -55.839  19.177  0.00  0.00    +0.000 HD
ATOM     49  H   PHE G   1      41.915 -57.390  19.258  0.00  0.00    +0.000 HD
ATOM     50  H   PHE G   1      43.556 -57.127  19.369  0.00  0.00    +0.000 HD
ATOM     51  H   LEU G   2      44.085 -57.279  22.926  0.00  0.00    +0.000 HD
ATOM     52  H   ASN G   3      43.750 -61.112  25.190  0.00  0.00    +0.000 HD
ATOM     53  H   ASN G   3      42.147 -64.674  27.375  0.00  0.00    +0.000 HD
ATOM     54  H   ASN G   3      43.725 -64.083  27.635  0.00  0.00    +0.000 HD
ATOM     55  H   GLY G   4      41.788 -58.555  28.433  0.00  0.00    +0.000 HD
ATOM     56  H   SER G   5      42.282 -56.703  26.770  0.00  0.00    +0.000 HD
ATOM     57  H   SER G   5      40.712 -55.240  24.730  0.00  0.00    +0.000 HD
ATOM     58  H   CYS G   6      40.508 -55.158  27.748  0.00  0.00    +0.000 HD
ATOM     59  H   CYS G   6      36.963 -55.231  26.647  0.00  0.00    +0.000 HD
ATOM     60  H   GLY G   7      38.276 -51.117  27.462  0.00  0.00    +0.000 HD
TER 
REMARK  Name = /data/user_data/xianyang/t3-aimnet-affinity-balanced/L1/P0C6U8/pocket.pdb
REMARK                            x       y       z     vdW  Elec       q    Type
REMARK                         _______ _______ _______ _____ _____    ______ ____
ATOM      1  N   HIS H   1      37.156 -49.694  24.559  0.00  0.00    +0.000 N 
ATOM      2  CA  HIS H   1      36.947 -51.100  24.218  0.00  0.00    +0.000 C 
ATOM      3  C   HIS H   1      36.251 -51.865  25.341  0.00  0.00    +0.000 C 
ATOM      4  O   HIS H   1      36.622 -51.738  26.505  0.00  0.00    +0.000 OA
ATOM      5  CB  HIS H   1      38.286 -51.752  23.912  0.00  0.00    +0.000 C 
ATOM      6  CG  HIS H   1      38.183 -53.176  23.494  0.00  0.00    +0.000 C 
ATOM      7  ND1 HIS H   1      37.214 -53.622  22.622  0.00  0.00    +0.000 NA
ATOM      8  CD2 HIS H   1      38.930 -54.256  23.815  0.00  0.00    +0.000 C 
ATOM      9  CE1 HIS H   1      37.365 -54.920  22.430  0.00  0.00    +0.000 C 
ATOM     10  NE2 HIS H   1      38.395 -55.331  23.146  0.00  0.00    +0.000 NA
ATOM     11  N   HIS H   2      35.253 -52.687  24.981  0.00  0.00    +0.000 N 
ATOM     12  CA  HIS H   2      34.574 -53.537  25.959  0.00  0.00    +0.000 C 
ATOM     13  C   HIS H   2      34.678 -55.022  25.658  0.00  0.00    +0.000 C 
ATOM     14  O   HIS H   2      34.837 -55.820  26.590  0.00  0.00    +0.000 OA
ATOM     15  CB  HIS H   2      33.092 -53.193  26.065  0.00  0.00    +0.000 C 
ATOM     16  CG  HIS H   2      32.812 -51.893  26.746  0.00  0.00    +0.000 A 
ATOM     17  ND1 HIS H   2      32.019 -51.793  27.876  0.00  0.00    +0.000 N 
ATOM     18  CD2 HIS H   2      33.203 -50.635  26.448  0.00  0.00    +0.000 A 
ATOM     19  CE1 HIS H   2      31.941 -50.525  28.242  0.00  0.00    +0.000 A 
ATOM     20  NE2 HIS H   2      32.660 -49.804  27.397  0.00  0.00    +0.000 NA
ATOM     21  N   MET H   3      34.569 -55.435  24.396  0.00  0.00    +0.000 N 
ATOM     22  CA  MET H   3      34.403 -56.860  24.146  0.00  0.00    +0.000 C 
ATOM     23  C   MET H   3      34.709 -57.207  22.699  0.00  0.00    +0.000 C 
ATOM     24  O   MET H   3      34.759 -56.339  21.821  0.00  0.00    +0.000 OA
ATOM     25  CB  MET H   3      32.977 -57.328  24.495  0.00  0.00    +0.000 C 
ATOM     26  CG  MET H   3      31.872 -56.672  23.689  0.00  0.00    +0.000 C 
ATOM     27  SD  MET H   3      30.231 -56.877  24.460  0.00  0.00    +0.000 S 
ATOM     28  CE  MET H   3      30.204 -58.666  24.574  0.00  0.00    +0.000 C 
ATOM     29  N   GLU H   4      34.895 -58.507  22.479  0.00  0.00    +0.000 N 
ATOM     30  CA  GLU H   4      35.045 -59.121  21.165  0.00  0.00    +0.000 C 
ATOM     31  C   GLU H   4      33.823 -59.985  20.875  0.00  0.00    +0.000 C 
ATOM     32  O   GLU H   4      33.389 -60.765  21.735  0.00  0.00    +0.000 OA
ATOM     33  CB  GLU H   4      36.317 -59.973  21.124  0.00  0.00    +0.000 C 
ATOM     34  CG  GLU H   4      36.499 -60.827  19.889  0.00  0.00    +0.000 C 
ATOM     35  CD  GLU H   4      37.947 -61.230  19.680  0.00  0.00    +0.000 C 
ATOM     36  OE1 GLU H   4      38.188 -62.362  19.208  0.00  0.00    +0.000 OA
ATOM     37  OE2 GLU H   4      38.853 -60.408  19.978  0.00  0.00    +0.000 OA
ATOM     38  N   LEU H   5      33.258 -59.838  19.682  0.00  0.00    +0.000 N 
ATOM     39  CA  LEU H   5      32.107 -60.646  19.287  0.00  0.00    +0.000 C 
ATOM     40  C   LEU H   5      32.583 -61.990  18.760  0.00  0.00    +0.000 C 
ATOM     41  O   LEU H   5      33.775 -62.178  18.493  0.00  0.00    +0.000 OA
ATOM     42  CB  LEU H   5      31.273 -59.903  18.248  0.00  0.00    +0.000 C 
ATOM     43  CG  LEU H   5      30.695 -58.579  18.736  0.00  0.00    +0.000 C 
ATOM     44  CD1 LEU H   5      29.820 -57.945  17.668  0.00  0.00    +0.000 C 
ATOM     45  CD2 LEU H   5      29.909 -58.800  20.024  0.00  0.00    +0.000 C 
ATOM     46  N   PRO H   6      31.681 -62.972  18.651  0.00  0.00    +0.000 N 
ATOM     47  CA  PRO H   6      32.123 -64.303  18.202  0.00  0.00    +0.000 C 
ATOM     48  C   PRO H   6      32.820 -64.286  16.853  0.00  0.00    +0.000 C 
ATOM     49  O   PRO H   6      33.690 -65.132  16.603  0.00  0.00    +0.000 OA
ATOM     50  CB  PRO H   6      30.820 -65.126  18.166  0.00  0.00    +0.000 C 
ATOM     51  CG  PRO H   6      29.729 -64.255  18.789  0.00  0.00    +0.000 C 
ATOM     52  CD  PRO H   6      30.383 -63.028  19.357  0.00  0.00    +0.000 C 
ATOM     53  H   HIS H   1      37.622 -49.222  23.784  0.00  0.00    +0.000 HD
ATOM     54  H   HIS H   1      37.737 -49.630  25.395  0.00  0.00    +0.000 HD
ATOM     55  H   HIS H   1      36.255 -49.249  24.736  0.00  0.00    +0.000 HD
ATOM     56  H   HIS H   2      34.972 -52.719  24.038  0.00  0.00    +0.000 HD
ATOM     57  H   HIS H   2      31.582 -52.547  28.335  0.00  0.00    +0.000 HD
ATOM     58  H   MET H   3      34.600 -54.793  23.651  0.00  0.00    +0.000 HD
ATOM     59  H   GLU H   4      34.934 -59.099  23.264  0.00  0.00    +0.000 HD
ATOM     60  H   LEU H   5      33.621 -59.173  19.053  0.00  0.00    +0.000 HD
TER 
REMARK  Name = /data/user_data/xianyang/t3-aimnet-affinity-balanced/L1/P0C6U8/pocket.pdb
REMARK                            x       y       z     vdW  Elec       q    Type
REMARK                         _______ _______ _______ _____ _____    ______ ____
ATOM      1  N   HIS I   1      34.962 -56.287  17.128  0.00  0.00    +0.000 N 
ATOM      2  CA  HIS I   1      35.028 -55.724  18.467  0.00  0.00    +0.000 C 
ATOM      3  C   HIS I   1      33.930 -54.700  18.681  0.00  0.00    +0.000 C 
ATOM      4  O   HIS I   1      33.547 -53.973  17.761  0.00  0.00    +0.000 OA
ATOM      5  CB  HIS I   1      36.391 -55.076  18.716  0.00  0.00    +0.000 C 
ATOM      6  CG  HIS I   1      37.506 -56.069  18.740  0.00  0.00    +0.000 C 
ATOM      7  ND1 HIS I   1      38.386 -56.238  17.688  0.00  0.00    +0.000 NA
ATOM      8  CD2 HIS I   1      37.836 -57.003  19.662  0.00  0.00    +0.000 C 
ATOM      9  CE1 HIS I   1      39.235 -57.207  17.983  0.00  0.00    +0.000 C 
ATOM     10  NE2 HIS I   1      38.917 -57.692  19.173  0.00  0.00    +0.000 NA
ATOM     11  H   HIS I   1      34.047 -56.713  16.983  0.00  0.00    +0.000 HD
ATOM     12  H   HIS I   1      35.688 -56.996  17.021  0.00  0.00    +0.000 HD
ATOM     13  H   HIS I   1      35.105 -55.547  16.441  0.00  0.00    +0.000 HD
TER 
REMARK  Name = /data/user_data/xianyang/t3-aimnet-affinity-balanced/L1/P0C6U8/pocket.pdb
REMARK                            x       y       z     vdW  Elec       q    Type
REMARK                         _______ _______ _______ _____ _____    ______ ____
ATOM      1  N   VAL J   1      25.271 -55.109  24.162  0.00  0.00    +0.000 N 
ATOM      2  CA  VAL J   1      25.095 -54.965  25.602  0.00  0.00    +0.000 C 
ATOM      3  C   VAL J   1      26.283 -55.604  26.311  0.00  0.00    +0.000 C 
ATOM      4  O   VAL J   1      26.866 -56.577  25.818  0.00  0.00    +0.000 OA
ATOM      5  CB  VAL J   1      23.768 -55.610  26.072  0.00  0.00    +0.000 C 
ATOM      6  CG1 VAL J   1      22.586 -55.004  25.334  0.00  0.00    +0.000 C 
ATOM      7  CG2 VAL J   1      23.804 -57.121  25.859  0.00  0.00    +0.000 C 
ATOM      8  N   ASP J   2      26.655 -55.062  27.478  0.00  0.00    +0.000 N 
ATOM      9  CA  ASP J   2      27.733 -55.702  28.243  0.00  0.00    +0.000 C 
ATOM     10  C   ASP J   2      27.158 -56.808  29.131  0.00  0.00    +0.000 C 
ATOM     11  O   ASP J   2      27.149 -56.744  30.360  0.00  0.00    +0.000 OA
ATOM     12  CB  ASP J   2      28.548 -54.696  29.052  0.00  0.00    +0.000 C 
ATOM     13  CG  ASP J   2      27.715 -53.649  29.746  0.00  0.00    +0.000 C 
ATOM     14  OD1 ASP J   2      26.478 -53.667  29.630  0.00  0.00    +0.000 OA
ATOM     15  OD2 ASP J   2      28.334 -52.803  30.434  0.00  0.00    +0.000 OA
ATOM     16  N   ARG J   3      26.676 -57.849  28.464  0.00  0.00    +0.000 N 
ATOM     17  CA  ARG J   3      26.439 -59.149  29.074  0.00  0.00    +0.000 C 
ATOM     18  C   ARG J   3      27.113 -60.194  28.200  0.00  0.00    +0.000 C 
ATOM     19  O   ARG J   3      27.083 -60.094  26.970  0.00  0.00    +0.000 OA
ATOM     20  CB  ARG J   3      24.945 -59.468  29.216  0.00  0.00    +0.000 C 
ATOM     21  CG  ARG J   3      24.046 -58.248  29.321  0.00  0.00    +0.000 C 
ATOM     22  CD  ARG J   3      22.569 -58.684  29.279  0.00  0.00    +0.000 C 
ATOM     23  NE  ARG J   3      21.683 -57.606  28.847  0.00  0.00    +0.000 N 
ATOM     24  CZ  ARG J   3      20.491 -57.803  28.289  0.00  0.00    +0.000 C 
ATOM     25  NH1 ARG J   3      19.741 -56.769  27.912  0.00  0.00    +0.000 N 
ATOM     26  NH2 ARG J   3      20.056 -59.041  28.086  0.00  0.00    +0.000 N 
ATOM     27  N   GLN J   4      27.744 -61.188  28.826  0.00  0.00    +0.000 N 
ATOM     28  CA  GLN J   4      28.424 -62.230  28.060  0.00  0.00    +0.000 C 
ATOM     29  C   GLN J   4      27.381 -63.251  27.615  0.00  0.00    +0.000 C 
ATOM     30  O   GLN J   4      27.298 -64.373  28.116  0.00  0.00    +0.000 OA
ATOM     31  CB  GLN J   4      29.543 -62.886  28.859  0.00  0.00    +0.000 C 
ATOM     32  CG  GLN J   4      30.470 -63.712  27.971  0.00  0.00    +0.000 C 
ATOM     33  CD  GLN J   4      30.939 -65.019  28.608  0.00  0.00    +0.000 C 
ATOM     34  OE1 GLN J   4      31.747 -65.014  29.541  0.00  0.00    +0.000 OA
ATOM     35  NE2 GLN J   4      30.448 -66.145  28.088  0.00  0.00    +0.000 N 
ATOM     36  H   VAL J   1      24.480 -54.684  23.679  0.00  0.00    +0.000 HD
ATOM     37  H   VAL J   1      25.323 -56.099  23.923  0.00  0.00    +0.000 HD
ATOM     38  H   VAL J   1      26.133 -54.645  23.877  0.00  0.00    +0.000 HD
ATOM     39  H   ASP J   2      26.214 -54.250  27.817  0.00  0.00    +0.000 HD
ATOM     40  H   ARG J   3      26.468 -57.736  27.508  0.00  0.00    +0.000 HD
ATOM     41  H   ARG J   3      21.986 -56.678  28.976  0.00  0.00    +0.000 HD
ATOM     42  H   ARG J   3      18.860 -56.924  27.500  0.00  0.00    +0.000 HD
ATOM     43  H   ARG J   3      20.067 -55.850  28.045  0.00  0.00    +0.000 HD
ATOM     44  H   ARG J   3      19.175 -59.192  27.674  0.00  0.00    +0.000 HD
ATOM     45  H   ARG J   3      20.615 -59.808  28.348  0.00  0.00    +0.000 HD
ATOM     46  H   GLN J   4      27.752 -61.220  29.810  0.00  0.00    +0.000 HD
ATOM     47  H   GLN J   4      29.805 -66.104  27.344  0.00  0.00    +0.000 HD
ATOM     48  H   GLN J   4      30.729 -67.017  28.449  0.00  0.00    +0.000 HD
TER 
REMARK  Name = /data/user_data/xianyang/t3-aimnet-affinity-balanced/L1/P0C6U8/pocket.pdb
REMARK                            x       y       z     vdW  Elec       q    Type
REMARK                         _______ _______ _______ _____ _____    ______ ____
ATOM      1  N   GLN K   1      25.666 -62.419  21.332  0.00  0.00    +0.000 N 
ATOM      2  CA  GLN K   1      25.398 -61.288  20.460  0.00  0.00    +0.000 C 
ATOM      3  C   GLN K   1      26.153 -61.490  19.157  0.00  0.00    +0.000 C 
ATOM      4  O   GLN K   1      27.190 -62.156  19.121  0.00  0.00    +0.000 OA
ATOM      5  CB  GLN K   1      25.814 -59.967  21.112  0.00  0.00    +0.000 C 
ATOM      6  CG  GLN K   1      25.844 -60.040  22.602  0.00  0.00    +0.000 C 
ATOM      7  CD  GLN K   1      26.022 -58.696  23.281  0.00  0.00    +0.000 C 
ATOM      8  OE1 GLN K   1      25.518 -57.664  22.823  0.00  0.00    +0.000 OA
ATOM      9  NE2 GLN K   1      26.732 -58.708  24.402  0.00  0.00    +0.000 N 
ATOM     10  H   GLN K   1      25.378 -63.281  20.869  0.00  0.00    +0.000 HD
ATOM     11  H   GLN K   1      25.144 -62.309  22.201  0.00  0.00    +0.000 HD
ATOM     12  H   GLN K   1      26.664 -62.461  21.538  0.00  0.00    +0.000 HD
ATOM     13  H   GLN K   1      27.116 -59.552  24.732  0.00  0.00    +0.000 HD
ATOM     14  H   GLN K   1      26.874 -57.873  24.903  0.00  0.00    +0.000 HD
TER 
