REMARK  Name = /data/user_data/xianyang/t3-aimnet-affinity-balanced/L4/Q8TDU9/pocket.pdb
REMARK                            x       y       z     vdW  Elec       q    Type
REMARK                         _______ _______ _______ _____ _____    ______ ____
ATOM      1  N   TYR A   1     123.854 133.564 106.180  0.00  0.00    +0.000 N 
ATOM      2  CA  TYR A   1     123.974 134.618 107.176  0.00  0.00    +0.000 C 
ATOM      3  C   TYR A   1     123.094 134.332 108.378  0.00  0.00    +0.000 C 
ATOM      4  O   TYR A   1     123.530 134.477 109.522  0.00  0.00    +0.000 OA
ATOM      5  CB  TYR A   1     123.597 135.961 106.555  0.00  0.00    +0.000 C 
ATOM      6  CG  TYR A   1     124.762 136.771 106.049  0.00  0.00    +0.000 A 
ATOM      7  CD2 TYR A   1     125.785 137.154 106.900  0.00  0.00    +0.000 A 
ATOM      8  CD1 TYR A   1     124.835 137.161 104.719  0.00  0.00    +0.000 A 
ATOM      9  CE2 TYR A   1     126.848 137.900 106.444  0.00  0.00    +0.000 A 
ATOM     10  CE1 TYR A   1     125.897 137.907 104.252  0.00  0.00    +0.000 A 
ATOM     11  CZ  TYR A   1     126.902 138.274 105.120  0.00  0.00    +0.000 A 
ATOM     12  OH  TYR A   1     127.964 139.018 104.662  0.00  0.00    +0.000 OA
ATOM     13  H   TYR A   1     124.454 133.779 105.384  0.00  0.00    +0.000 HD
ATOM     14  H   TYR A   1     122.885 133.500 105.868  0.00  0.00    +0.000 HD
ATOM     15  H   TYR A   1     124.139 132.675 106.590  0.00  0.00    +0.000 HD
ATOM     16  H   TYR A   1     128.003 139.274 103.761  0.00  0.00    +0.000 HD
TER 
REMARK  Name = /data/user_data/xianyang/t3-aimnet-affinity-balanced/L4/Q8TDU9/pocket.pdb
REMARK                            x       y       z     vdW  Elec       q    Type
REMARK                         _______ _______ _______ _____ _____    ______ ____
ATOM      1  N   TRP B   1     123.844 143.469 107.647  0.00  0.00    +0.000 N 
ATOM      2  CA  TRP B   1     124.476 143.025 106.412  0.00  0.00    +0.000 C 
ATOM      3  C   TRP B   1     123.741 141.838 105.814  0.00  0.00    +0.000 C 
ATOM      4  O   TRP B   1     123.679 141.697 104.587  0.00  0.00    +0.000 OA
ATOM      5  CB  TRP B   1     125.936 142.670 106.665  0.00  0.00    +0.000 C 
ATOM      6  CG  TRP B   1     126.749 143.829 107.058  0.00  0.00    +0.000 C 
ATOM      7  CD1 TRP B   1     127.467 143.975 108.200  0.00  0.00    +0.000 C 
ATOM      8  CD2 TRP B   1     126.932 145.025 106.311  0.00  0.00    +0.000 A 
ATOM      9  NE1 TRP B   1     128.095 145.188 108.210  0.00  0.00    +0.000 NA
ATOM     10  CE2 TRP B   1     127.779 145.855 107.059  0.00  0.00    +0.000 A 
ATOM     11  CE3 TRP B   1     126.465 145.476 105.073  0.00  0.00    +0.000 A 
ATOM     12  CZ2 TRP B   1     128.171 147.111 106.615  0.00  0.00    +0.000 A 
ATOM     13  CZ3 TRP B   1     126.851 146.723 104.634  0.00  0.00    +0.000 A 
ATOM     14  CH2 TRP B   1     127.696 147.527 105.402  0.00  0.00    +0.000 A 
ATOM     15  H   TRP B   1     122.868 143.703 107.464  0.00  0.00    +0.000 HD
ATOM     16  H   TRP B   1     124.331 144.292 108.001  0.00  0.00    +0.000 HD
ATOM     17  H   TRP B   1     123.890 142.722 108.340  0.00  0.00    +0.000 HD
TER 
REMARK  Name = /data/user_data/xianyang/t3-aimnet-affinity-balanced/L4/Q8TDU9/pocket.pdb
REMARK                            x       y       z     vdW  Elec       q    Type
REMARK                         _______ _______ _______ _____ _____    ______ ____
ATOM      1  N   GLU C   1     120.957 143.374 103.955  0.00  0.00    +0.000 N 
ATOM      2  CA  GLU C   1     121.472 144.083 102.792  0.00  0.00    +0.000 C 
ATOM      3  C   GLU C   1     121.803 143.112 101.671  0.00  0.00    +0.000 C 
ATOM      4  O   GLU C   1     121.518 143.381 100.500  0.00  0.00    +0.000 OA
ATOM      5  CB  GLU C   1     122.693 144.911 103.192  0.00  0.00    +0.000 C 
ATOM      6  CG  GLU C   1     123.331 145.735 102.079  0.00  0.00    +0.000 C 
ATOM      7  CD  GLU C   1     124.748 145.303 101.751  0.00  0.00    +0.000 C 
ATOM      8  OE2 GLU C   1     125.613 145.365 102.650  0.00  0.00    +0.000 OA
ATOM      9  OE1 GLU C   1     124.993 144.881 100.608  0.00  0.00    +0.000 OA
ATOM     10  H   GLU C   1     120.143 142.823 103.684  0.00  0.00    +0.000 HD
ATOM     11  H   GLU C   1     120.688 144.048 104.672  0.00  0.00    +0.000 HD
ATOM     12  H   GLU C   1     121.679 142.755 104.323  0.00  0.00    +0.000 HD
TER 
REMARK  Name = /data/user_data/xianyang/t3-aimnet-affinity-balanced/L4/Q8TDU9/pocket.pdb
REMARK                            x       y       z     vdW  Elec       q    Type
REMARK                         _______ _______ _______ _____ _____    ______ ____
ATOM      1  N   PHE D   1     121.336 143.891  97.065  0.00  0.00    +0.000 N 
ATOM      2  CA  PHE D   1     122.454 144.828  97.114  0.00  0.00    +0.000 C 
ATOM      3  C   PHE D   1     121.973 146.281  97.089  0.00  0.00    +0.000 C 
ATOM      4  O   PHE D   1     122.254 147.046  96.165  0.00  0.00    +0.000 OA
ATOM      5  CB  PHE D   1     123.435 144.550  95.971  0.00  0.00    +0.000 C 
ATOM      6  CG  PHE D   1     124.734 145.284  96.096  0.00  0.00    +0.000 A 
ATOM      7  CD2 PHE D   1     125.316 145.476  97.334  0.00  0.00    +0.000 A 
ATOM      8  CD1 PHE D   1     125.372 145.783  94.974  0.00  0.00    +0.000 A 
ATOM      9  CE2 PHE D   1     126.510 146.149  97.452  0.00  0.00    +0.000 A 
ATOM     10  CE1 PHE D   1     126.568 146.459  95.085  0.00  0.00    +0.000 A 
ATOM     11  CZ  PHE D   1     127.137 146.643  96.326  0.00  0.00    +0.000 A 
ATOM     12  H   PHE D   1     121.692 142.935  97.083  0.00  0.00    +0.000 HD
ATOM     13  H   PHE D   1     120.805 144.040  96.207  0.00  0.00    +0.000 HD
ATOM     14  H   PHE D   1     120.729 144.043  97.871  0.00  0.00    +0.000 HD
TER 
REMARK  Name = /data/user_data/xianyang/t3-aimnet-affinity-balanced/L4/Q8TDU9/pocket.pdb
REMARK                            x       y       z     vdW  Elec       q    Type
REMARK                         _______ _______ _______ _____ _____    ______ ____
ATOM      1  N   LEU E   1     129.097 150.010 109.811  0.00  0.00    +0.000 N 
ATOM      2  CA  LEU E   1     130.481 149.780 109.408  0.00  0.00    +0.000 C 
ATOM      3  C   LEU E   1     131.418 149.894 110.599  0.00  0.00    +0.000 C 
ATOM      4  O   LEU E   1     132.289 149.035 110.805  0.00  0.00    +0.000 OA
ATOM      5  CB  LEU E   1     130.909 150.764 108.325  0.00  0.00    +0.000 C 
ATOM      6  CG  LEU E   1     130.569 150.462 106.870  0.00  0.00    +0.000 C 
ATOM      7  CD1 LEU E   1     131.254 149.188 106.414  0.00  0.00    +0.000 C 
ATOM      8  CD2 LEU E   1     129.081 150.399 106.651  0.00  0.00    +0.000 C 
ATOM      9  H   LEU E   1     128.488 149.929 108.997  0.00  0.00    +0.000 HD
ATOM     10  H   LEU E   1     129.010 150.945 110.209  0.00  0.00    +0.000 HD
ATOM     11  H   LEU E   1     128.826 149.317 110.509  0.00  0.00    +0.000 HD
TER 
REMARK  Name = /data/user_data/xianyang/t3-aimnet-affinity-balanced/L4/Q8TDU9/pocket.pdb
REMARK                            x       y       z     vdW  Elec       q    Type
REMARK                         _______ _______ _______ _____ _____    ______ ____
ATOM      1  N   THR F   1     130.977 146.817 112.989  0.00  0.00    +0.000 N 
ATOM      2  CA  THR F   1     131.552 145.570 112.497  0.00  0.00    +0.000 C 
ATOM      3  C   THR F   1     133.069 145.614 112.534  0.00  0.00    +0.000 C 
ATOM      4  O   THR F   1     133.718 144.656 112.974  0.00  0.00    +0.000 OA
ATOM      5  CB  THR F   1     131.067 145.266 111.082  0.00  0.00    +0.000 C 
ATOM      6  OG1 THR F   1     129.643 145.122 111.082  0.00  0.00    +0.000 OA
ATOM      7  CG2 THR F   1     131.708 144.005 110.559  0.00  0.00    +0.000 C 
ATOM      8  N   VAL F   2     133.660 146.723 112.090  0.00  0.00    +0.000 N 
ATOM      9  CA  VAL F   2     135.115 146.789 112.068  0.00  0.00    +0.000 C 
ATOM     10  C   VAL F   2     135.677 146.733 113.481  0.00  0.00    +0.000 C 
ATOM     11  O   VAL F   2     136.659 146.025 113.745  0.00  0.00    +0.000 OA
ATOM     12  CB  VAL F   2     135.587 148.042 111.318  0.00  0.00    +0.000 C 
ATOM     13  CG2 VAL F   2     137.084 148.191 111.448  0.00  0.00    +0.000 C 
ATOM     14  CG1 VAL F   2     135.206 147.931 109.871  0.00  0.00    +0.000 C 
ATOM     15  H   THR F   1     129.959 146.760 112.953  0.00  0.00    +0.000 HD
ATOM     16  H   THR F   1     131.295 147.591 112.406  0.00  0.00    +0.000 HD
ATOM     17  H   THR F   1     131.275 146.972 113.952  0.00  0.00    +0.000 HD
ATOM     18  H   THR F   1     129.392 144.386 111.661  0.00  0.00    +0.000 HD
ATOM     19  H   VAL F   2     133.121 147.487 111.781  0.00  0.00    +0.000 HD
TER 
REMARK  Name = /data/user_data/xianyang/t3-aimnet-affinity-balanced/L4/Q8TDU9/pocket.pdb
REMARK                            x       y       z     vdW  Elec       q    Type
REMARK                         _______ _______ _______ _____ _____    ______ ____
ATOM      1  N   THR G   1     137.177 153.840 109.620  0.00  0.00    +0.000 N 
ATOM      2  CA  THR G   1     135.950 153.305 109.046  0.00  0.00    +0.000 C 
ATOM      3  C   THR G   1     134.748 154.133 109.477  0.00  0.00    +0.000 C 
ATOM      4  O   THR G   1     133.799 154.312 108.705  0.00  0.00    +0.000 OA
ATOM      5  CB  THR G   1     135.764 151.843 109.438  0.00  0.00    +0.000 C 
ATOM      6  OG1 THR G   1     136.968 151.118 109.161  0.00  0.00    +0.000 OA
ATOM      7  CG2 THR G   1     134.621 151.232 108.645  0.00  0.00    +0.000 C 
ATOM      8  H   THR G   1     137.969 153.272 109.319  0.00  0.00    +0.000 HD
ATOM      9  H   THR G   1     137.112 153.822 110.638  0.00  0.00    +0.000 HD
ATOM     10  H   THR G   1     137.309 154.801 109.305  0.00  0.00    +0.000 HD
ATOM     11  H   THR G   1     137.167 151.171 108.213  0.00  0.00    +0.000 HD
TER 
REMARK  Name = /data/user_data/xianyang/t3-aimnet-affinity-balanced/L4/Q8TDU9/pocket.pdb
REMARK                            x       y       z     vdW  Elec       q    Type
REMARK                         _______ _______ _______ _____ _____    ______ ____
ATOM      1  N   LEU H   1     123.977 152.426  98.917  0.00  0.00    +0.000 N 
ATOM      2  CA  LEU H   1     124.854 151.415  99.482  0.00  0.00    +0.000 C 
ATOM      3  C   LEU H   1     125.503 151.969 100.740  0.00  0.00    +0.000 C 
ATOM      4  O   LEU H   1     125.316 153.134 101.096  0.00  0.00    +0.000 OA
ATOM      5  CB  LEU H   1     125.926 150.999  98.477  0.00  0.00    +0.000 C 
ATOM      6  CG  LEU H   1     125.411 150.396  97.171  0.00  0.00    +0.000 C 
ATOM      7  CD1 LEU H   1     126.556 150.172  96.195  0.00  0.00    +0.000 C 
ATOM      8  CD2 LEU H   1     124.658 149.105  97.433  0.00  0.00    +0.000 C 
ATOM      9  N   CYS H   2     126.272 151.120 101.412  0.00  0.00    +0.000 N 
ATOM     10  CA  CYS H   2     127.204 151.577 102.441  0.00  0.00    +0.000 C 
ATOM     11  C   CYS H   2     128.597 151.726 101.888  0.00  0.00    +0.000 C 
ATOM     12  O   CYS H   2     129.575 151.346 102.534  0.00  0.00    +0.000 OA
ATOM     13  CB  CYS H   2     127.210 150.661 103.654  0.00  0.00    +0.000 C 
ATOM     14  SG  CYS H   2     125.802 150.807 104.746  0.00  0.00    +0.000 S 
ATOM     15  N   LEU H   3     128.711 152.278 100.686  0.00  0.00    +0.000 N 
ATOM     16  CA  LEU H   3     129.982 152.279  99.989  0.00  0.00    +0.000 C 
ATOM     17  C   LEU H   3     130.984 153.139 100.740  0.00  0.00    +0.000 C 
ATOM     18  O   LEU H   3     131.067 154.351 100.527  0.00  0.00    +0.000 OA
ATOM     19  CB  LEU H   3     129.792 152.800  98.563  0.00  0.00    +0.000 C 
ATOM     20  CG  LEU H   3     131.004 152.826  97.630  0.00  0.00    +0.000 C 
ATOM     21  CD2 LEU H   3     131.529 151.426  97.386  0.00  0.00    +0.000 C 
ATOM     22  CD1 LEU H   3     130.650 153.503  96.314  0.00  0.00    +0.000 C 
ATOM     23  N   LEU H   4     131.727 152.500 101.641  0.00  0.00    +0.000 N 
ATOM     24  CA  LEU H   4     132.905 153.113 102.228  0.00  0.00    +0.000 C 
ATOM     25  C   LEU H   4     133.793 153.584 101.095  0.00  0.00    +0.000 C 
ATOM     26  O   LEU H   4     134.087 152.821 100.172  0.00  0.00    +0.000 OA
ATOM     27  CB  LEU H   4     133.636 152.096 103.099  0.00  0.00    +0.000 C 
ATOM     28  CG  LEU H   4     134.877 152.512 103.881  0.00  0.00    +0.000 C 
ATOM     29  CD2 LEU H   4     134.520 153.574 104.890  0.00  0.00    +0.000 C 
ATOM     30  CD1 LEU H   4     135.495 151.304 104.567  0.00  0.00    +0.000 C 
ATOM     31  N   ARG H   5     134.220 154.837 101.145  0.00  0.00    +0.000 N 
ATOM     32  CA  ARG H   5     134.549 155.422  99.860  0.00  0.00    +0.000 C 
ATOM     33  C   ARG H   5     135.737 156.339 100.146  0.00  0.00    +0.000 C 
ATOM     34  O   ARG H   5     136.453 156.105 101.124  0.00  0.00    +0.000 OA
ATOM     35  CB  ARG H   5     133.332 156.155  99.270  0.00  0.00    +0.000 C 
ATOM     36  CG  ARG H   5     133.555 156.779  97.899  0.00  0.00    +0.000 C 
ATOM     37  CD  ARG H   5     133.626 155.586  96.915  0.00  0.00    +0.000 C 
ATOM     38  NE  ARG H   5     134.928 154.934  96.778  0.00  0.00    +0.000 N 
ATOM     39  CZ  ARG H   5     135.120 153.800  96.106  0.00  0.00    +0.000 C 
ATOM     40  NH2 ARG H   5     136.321 153.248  96.049  0.00  0.00    +0.000 N 
ATOM     41  NH1 ARG H   5     134.104 153.204  95.499  0.00  0.00    +0.000 N 
ATOM     42  H   LEU H   1     123.538 152.061  98.072  0.00  0.00    +0.000 HD
ATOM     43  H   LEU H   1     124.521 153.257  98.686  0.00  0.00    +0.000 HD
ATOM     44  H   LEU H   1     123.257 152.670  99.597  0.00  0.00    +0.000 HD
ATOM     45  H   CYS H   2     126.213 150.158 101.212  0.00  0.00    +0.000 HD
ATOM     46  H   CYS H   2     125.774 152.055 105.285  0.00  0.00    +0.000 HD
ATOM     47  H   LEU H   3     127.924 152.691 100.263  0.00  0.00    +0.000 HD
ATOM     48  H   LEU H   4     131.472 151.590 101.916  0.00  0.00    +0.000 HD
ATOM     49  H   ARG H   5     134.307 155.333 101.991  0.00  0.00    +0.000 HD
ATOM     50  H   ARG H   5     135.707 155.357  97.207  0.00  0.00    +0.000 HD
ATOM     51  H   ARG H   5     136.454 152.410  95.550  0.00  0.00    +0.000 HD
ATOM     52  H   ARG H   5     137.081 153.675  96.505  0.00  0.00    +0.000 HD
ATOM     53  H   ARG H   5     134.250 152.366  95.003  0.00  0.00    +0.000 HD
ATOM     54  H   ARG H   5     133.203 153.599  95.544  0.00  0.00    +0.000 HD
TER 
REMARK  Name = /data/user_data/xianyang/t3-aimnet-affinity-balanced/L4/Q8TDU9/pocket.pdb
REMARK                            x       y       z     vdW  Elec       q    Type
REMARK                         _______ _______ _______ _____ _____    ______ ____
ATOM      1  N   TYR I   1     144.139 152.398 103.908  0.00  0.00    +0.000 N 
ATOM      2  CA  TYR I   1     143.283 151.734 104.878  0.00  0.00    +0.000 C 
ATOM      3  C   TYR I   1     143.269 150.236 104.622  0.00  0.00    +0.000 C 
ATOM      4  O   TYR I   1     143.380 149.434 105.557  0.00  0.00    +0.000 OA
ATOM      5  CB  TYR I   1     141.875 152.322 104.807  0.00  0.00    +0.000 C 
ATOM      6  CG  TYR I   1     140.790 151.488 105.442  0.00  0.00    +0.000 A 
ATOM      7  CD2 TYR I   1     140.550 151.548 106.805  0.00  0.00    +0.000 A 
ATOM      8  CD1 TYR I   1     139.986 150.660 104.674  0.00  0.00    +0.000 A 
ATOM      9  CE2 TYR I   1     139.551 150.797 107.385  0.00  0.00    +0.000 A 
ATOM     10  CE1 TYR I   1     138.987 149.906 105.246  0.00  0.00    +0.000 A 
ATOM     11  CZ  TYR I   1     138.773 149.978 106.600  0.00  0.00    +0.000 A 
ATOM     12  OH  TYR I   1     137.777 149.227 107.175  0.00  0.00    +0.000 OA
ATOM     13  H   TYR I   1     145.078 152.004 103.957  0.00  0.00    +0.000 HD
ATOM     14  H   TYR I   1     144.178 153.396 104.116  0.00  0.00    +0.000 HD
ATOM     15  H   TYR I   1     143.761 152.260 102.971  0.00  0.00    +0.000 HD
ATOM     16  H   TYR I   1     137.245 148.668 106.643  0.00  0.00    +0.000 HD
TER 
REMARK  Name = /data/user_data/xianyang/t3-aimnet-affinity-balanced/L4/Q8TDU9/pocket.pdb
REMARK                            x       y       z     vdW  Elec       q    Type
REMARK                         _______ _______ _______ _____ _____    ______ ____
ATOM      1  N   ARG J   1     144.850 147.527 107.208  0.00  0.00    +0.000 N 
ATOM      2  CA  ARG J   1     144.035 146.436 107.710  0.00  0.00    +0.000 C 
ATOM      3  C   ARG J   1     144.670 145.092 107.394  0.00  0.00    +0.000 C 
ATOM      4  O   ARG J   1     144.865 144.270 108.297  0.00  0.00    +0.000 OA
ATOM      5  CB  ARG J   1     142.629 146.519 107.118  0.00  0.00    +0.000 C 
ATOM      6  CG  ARG J   1     141.578 145.724 107.869  0.00  0.00    +0.000 C 
ATOM      7  CD  ARG J   1     141.310 144.402 107.193  0.00  0.00    +0.000 C 
ATOM      8  NE  ARG J   1     140.472 144.555 106.012  0.00  0.00    +0.000 N 
ATOM      9  CZ  ARG J   1     139.147 144.587 106.041  0.00  0.00    +0.000 C 
ATOM     10  NH2 ARG J   1     138.507 144.479 107.195  0.00  0.00    +0.000 N 
ATOM     11  NH1 ARG J   1     138.461 144.726 104.916  0.00  0.00    +0.000 N 
ATOM     12  H   ARG J   1     144.403 148.416 107.432  0.00  0.00    +0.000 HD
ATOM     13  H   ARG J   1     144.947 147.441 106.196  0.00  0.00    +0.000 HD
ATOM     14  H   ARG J   1     145.772 147.491 107.643  0.00  0.00    +0.000 HD
ATOM     15  H   ARG J   1     140.917 144.640 105.138  0.00  0.00    +0.000 HD
ATOM     16  H   ARG J   1     137.523 144.503 107.216  0.00  0.00    +0.000 HD
ATOM     17  H   ARG J   1     139.015 144.375 108.032  0.00  0.00    +0.000 HD
ATOM     18  H   ARG J   1     138.935 144.806 104.057  0.00  0.00    +0.000 HD
ATOM     19  H   ARG J   1     137.477 144.749 104.939  0.00  0.00    +0.000 HD
TER 
REMARK  Name = /data/user_data/xianyang/t3-aimnet-affinity-balanced/L4/Q8TDU9/pocket.pdb
REMARK                            x       y       z     vdW  Elec       q    Type
REMARK                         _______ _______ _______ _____ _____    ______ ____
ATOM      1  N   ASN K   1     139.297 136.470 103.044  0.00  0.00    +0.000 N 
ATOM      2  CA  ASN K   1     138.957 137.881 102.908  0.00  0.00    +0.000 C 
ATOM      3  C   ASN K   1     140.204 138.727 102.739  0.00  0.00    +0.000 C 
ATOM      4  O   ASN K   1     140.240 139.641 101.906  0.00  0.00    +0.000 OA
ATOM      5  CB  ASN K   1     138.163 138.359 104.117  0.00  0.00    +0.000 C 
ATOM      6  CG  ASN K   1     136.713 137.987 104.034  0.00  0.00    +0.000 C 
ATOM      7  OD1 ASN K   1     136.281 137.031 104.661  0.00  0.00    +0.000 OA
ATOM      8  ND2 ASN K   1     135.947 138.743 103.256  0.00  0.00    +0.000 N 
ATOM      9  H   ASN K   1     139.828 136.168 102.227  0.00  0.00    +0.000 HD
ATOM     10  H   ASN K   1     138.441 135.920 103.116  0.00  0.00    +0.000 HD
ATOM     11  H   ASN K   1     139.860 136.335 103.884  0.00  0.00    +0.000 HD
ATOM     12  H   ASN K   1     136.339 139.504 102.769  0.00  0.00    +0.000 HD
ATOM     13  H   ASN K   1     134.987 138.543 103.166  0.00  0.00    +0.000 HD
TER 
REMARK  Name = /data/user_data/xianyang/t3-aimnet-affinity-balanced/L4/Q8TDU9/pocket.pdb
REMARK                            x       y       z     vdW  Elec       q    Type
REMARK                         _______ _______ _______ _____ _____    ______ ____
ATOM      1  N   LYS L   1     144.187 147.677  92.008  0.00  0.00    +0.000 N 
ATOM      2  CA  LYS L   1     143.843 149.092  91.950  0.00  0.00    +0.000 C 
ATOM      3  C   LYS L   1     145.089 149.970  91.952  0.00  0.00    +0.000 C 
ATOM      4  O   LYS L   1     145.188 150.912  91.158  0.00  0.00    +0.000 OA
ATOM      5  CB  LYS L   1     142.920 149.458  93.112  0.00  0.00    +0.000 C 
ATOM      6  CG  LYS L   1     141.538 148.830  93.020  0.00  0.00    +0.000 C 
ATOM      7  CD  LYS L   1     140.638 149.602  92.068  0.00  0.00    +0.000 C 
ATOM      8  CE  LYS L   1     139.212 149.077  92.106  0.00  0.00    +0.000 C 
ATOM      9  NZ  LYS L   1     138.496 149.489  93.344  0.00  0.00    +0.000 N 
ATOM     10  H   LYS L   1     144.803 147.445  91.229  0.00  0.00    +0.000 HD
ATOM     11  H   LYS L   1     143.336 147.118  91.948  0.00  0.00    +0.000 HD
ATOM     12  H   LYS L   1     144.663 147.479  92.888  0.00  0.00    +0.000 HD
ATOM     13  H   LYS L   1     138.978 149.108  94.158  0.00  0.00    +0.000 HD
ATOM     14  H   LYS L   1     137.540 149.134  93.318  0.00  0.00    +0.000 HD
ATOM     15  H   LYS L   1     138.479 150.507  93.404  0.00  0.00    +0.000 HD
TER 
REMARK  Name = /data/user_data/xianyang/t3-aimnet-affinity-balanced/L4/Q8TDU9/pocket.pdb
REMARK                            x       y       z     vdW  Elec       q    Type
REMARK                         _______ _______ _______ _____ _____    ______ ____
ATOM      1  N   PHE M   1     133.657 136.490  96.948  0.00  0.00    +0.000 N 
ATOM      2  CA  PHE M   1     133.637 137.518  97.988  0.00  0.00    +0.000 C 
ATOM      3  C   PHE M   1     132.514 137.322  99.002  0.00  0.00    +0.000 C 
ATOM      4  O   PHE M   1     132.782 137.428 100.212  0.00  0.00    +0.000 OA
ATOM      5  CB  PHE M   1     133.557 138.896  97.322  0.00  0.00    +0.000 C 
ATOM      6  CG  PHE M   1     133.581 140.042  98.289  0.00  0.00    +0.000 A 
ATOM      7  CD2 PHE M   1     134.768 140.425  98.891  0.00  0.00    +0.000 A 
ATOM      8  CD1 PHE M   1     132.425 140.735  98.599  0.00  0.00    +0.000 A 
ATOM      9  CE2 PHE M   1     134.806 141.481  99.773  0.00  0.00    +0.000 A 
ATOM     10  CE1 PHE M   1     132.454 141.791  99.489  0.00  0.00    +0.000 A 
ATOM     11  CZ  PHE M   1     133.648 142.163 100.077  0.00  0.00    +0.000 A 
ATOM     12  H   PHE M   1     134.426 136.674  96.303  0.00  0.00    +0.000 HD
ATOM     13  H   PHE M   1     132.774 136.505  96.438  0.00  0.00    +0.000 HD
ATOM     14  H   PHE M   1     133.785 135.574  97.378  0.00  0.00    +0.000 HD
TER 
REMARK  Name = /data/user_data/xianyang/t3-aimnet-affinity-balanced/L4/Q8TDU9/pocket.pdb
REMARK                            x       y       z     vdW  Elec       q    Type
REMARK                         _______ _______ _______ _____ _____    ______ ____
ATOM      1  N   THR N   1     133.183 136.465 103.011  0.00  0.00    +0.000 N 
ATOM      2  CA  THR N   1     132.659 137.160 104.180  0.00  0.00    +0.000 C 
ATOM      3  C   THR N   1     131.840 136.225 105.064  0.00  0.00    +0.000 C 
ATOM      4  O   THR N   1     131.931 136.293 106.300  0.00  0.00    +0.000 OA
ATOM      5  CB  THR N   1     131.848 138.393 103.762  0.00  0.00    +0.000 C 
ATOM      6  OG1 THR N   1     131.489 139.148 104.926  0.00  0.00    +0.000 OA
ATOM      7  CG2 THR N   1     130.590 138.019 102.999  0.00  0.00    +0.000 C 
ATOM      8  H   THR N   1     133.724 137.116 102.442  0.00  0.00    +0.000 HD
ATOM      9  H   THR N   1     132.409 136.095 102.460  0.00  0.00    +0.000 HD
ATOM     10  H   THR N   1     133.783 135.697 103.313  0.00  0.00    +0.000 HD
ATOM     11  H   THR N   1     130.932 138.604 105.505  0.00  0.00    +0.000 HD
TER 
REMARK  Name = /data/user_data/xianyang/t3-aimnet-affinity-balanced/L4/Q8TDU9/pocket.pdb
REMARK                            x       y       z     vdW  Elec       q    Type
REMARK                         _______ _______ _______ _____ _____    ______ ____
ATOM      1  N   ALA O   1     134.205 134.155 107.022  0.00  0.00    +0.000 N 
ATOM      2  CA  ALA O   1     134.910 134.902 108.054  0.00  0.00    +0.000 C 
ATOM      3  C   ALA O   1     134.034 135.129 109.271  0.00  0.00    +0.000 C 
ATOM      4  O   ALA O   1     134.501 135.012 110.409  0.00  0.00    +0.000 OA
ATOM      5  CB  ALA O   1     135.400 136.237 107.501  0.00  0.00    +0.000 C 
ATOM      6  N   HIS O   2     132.763 135.456 109.059  0.00  0.00    +0.000 N 
ATOM      7  CA  HIS O   2     131.915 135.767 110.203  0.00  0.00    +0.000 C 
ATOM      8  C   HIS O   2     131.754 134.579 111.141  0.00  0.00    +0.000 C 
ATOM      9  O   HIS O   2     131.436 134.773 112.318  0.00  0.00    +0.000 OA
ATOM     10  CB  HIS O   2     130.556 136.260 109.722  0.00  0.00    +0.000 C 
ATOM     11  CG  HIS O   2     130.515 137.734 109.473  0.00  0.00    +0.000 A 
ATOM     12  ND1 HIS O   2     130.701 138.661 110.473  0.00  0.00    +0.000 N 
ATOM     13  CD2 HIS O   2     130.332 138.441 108.334  0.00  0.00    +0.000 A 
ATOM     14  CE1 HIS O   2     130.624 139.877 109.965  0.00  0.00    +0.000 A 
ATOM     15  NE2 HIS O   2     130.400 139.772 108.668  0.00  0.00    +0.000 NA
ATOM     16  H   ALA O   1     134.820 134.020 106.220  0.00  0.00    +0.000 HD
ATOM     17  H   ALA O   1     133.377 134.675 106.732  0.00  0.00    +0.000 HD
ATOM     18  H   ALA O   1     133.924 133.247 107.392  0.00  0.00    +0.000 HD
ATOM     19  H   HIS O   2     132.400 135.488 108.144  0.00  0.00    +0.000 HD
ATOM     20  H   HIS O   2     130.866 138.450 111.420  0.00  0.00    +0.000 HD
TER 
