REMARK  Name = /data/user_data/xianyang/t3-aimnet-affinity-balanced/L2/P05177/pocket.pdb
REMARK                            x       y       z     vdW  Elec       q    Type
REMARK                         _______ _______ _______ _____ _____    ______ ____
ATOM      1  N   ILE A   1       0.409  14.246  10.834  0.00  0.00    +0.000 N 
ATOM      2  CA  ILE A   1       0.029  14.731  12.129  0.00  0.00    +0.000 C 
ATOM      3  C   ILE A   1      -1.429  15.187  12.103  0.00  0.00    +0.000 C 
ATOM      4  O   ILE A   1      -1.808  16.050  11.322  0.00  0.00    +0.000 OA
ATOM      5  CB  ILE A   1       1.023  15.855  12.594  0.00  0.00    +0.000 C 
ATOM      6  CG1 ILE A   1       2.410  15.195  12.868  0.00  0.00    +0.000 C 
ATOM      7  CG2 ILE A   1       0.525  16.534  13.763  0.00  0.00    +0.000 C 
ATOM      8  CD1 ILE A   1       3.579  16.196  13.251  0.00  0.00    +0.000 C 
ATOM      9  N   THR A   2      -2.199  14.590  13.010  0.00  0.00    +0.000 N 
ATOM     10  CA  THR A   2      -3.640  14.806  13.185  0.00  0.00    +0.000 C 
ATOM     11  C   THR A   2      -4.376  14.903  11.872  0.00  0.00    +0.000 C 
ATOM     12  O   THR A   2      -4.425  13.930  11.137  0.00  0.00    +0.000 OA
ATOM     13  CB  THR A   2      -4.011  16.043  14.076  0.00  0.00    +0.000 C 
ATOM     14  OG1 THR A   2      -3.512  17.242  13.500  0.00  0.00    +0.000 OA
ATOM     15  CG2 THR A   2      -3.487  15.876  15.518  0.00  0.00    +0.000 C 
ATOM     16  H   ILE A   1      -0.241  13.517  10.540  0.00  0.00    +0.000 HD
ATOM     17  H   ILE A   1       1.353  13.862  10.878  0.00  0.00    +0.000 HD
ATOM     18  H   ILE A   1       0.385  15.014  10.163  0.00  0.00    +0.000 HD
ATOM     19  H   THR A   2      -1.764  13.948  13.616  0.00  0.00    +0.000 HD
ATOM     20  H   THR A   2      -2.544  17.200  13.453  0.00  0.00    +0.000 HD
TER 
REMARK  Name = /data/user_data/xianyang/t3-aimnet-affinity-balanced/L2/P05177/pocket.pdb
REMARK                            x       y       z     vdW  Elec       q    Type
REMARK                         _______ _______ _______ _____ _____    ______ ____
ATOM      1  N   SER B   1      -2.724  20.939  11.756  0.00  0.00    +0.000 N 
ATOM      2  CA  SER B   1      -2.388  21.508  13.062  0.00  0.00    +0.000 C 
ATOM      3  CB  SER B   1      -1.756  22.916  12.937  0.00  0.00    +0.000 C 
ATOM      4  OG  SER B   1      -1.167  23.251  11.909  0.00  0.00    +0.000 OA
ATOM      5  C   SER B   1      -1.466  20.553  13.841  0.00  0.00    +0.000 C 
ATOM      6  O   SER B   1      -0.175  20.467  13.197  0.00  0.00    +0.000 OA
ATOM      7  H   SER B   1      -3.335  21.582  11.252  0.00  0.00    +0.000 HD
ATOM      8  H   SER B   1      -3.202  20.048  11.886  0.00  0.00    +0.000 HD
ATOM      9  H   SER B   1      -1.869  20.791  11.220  0.00  0.00    +0.000 HD
ATOM     10  H   SER B   1      -0.286  20.128  12.295  0.00  0.00    +0.000 HD
TER 
REMARK  Name = /data/user_data/xianyang/t3-aimnet-affinity-balanced/L2/P05177/pocket.pdb
REMARK                            x       y       z     vdW  Elec       q    Type
REMARK                         _______ _______ _______ _____ _____    ______ ____
ATOM      1  N   THR C   1       0.529  23.984  14.974  0.00  0.00    +0.000 N 
ATOM      2  CA  THR C   1       1.978  23.708  15.207  0.00  0.00    +0.000 C 
ATOM      3  C   THR C   1       2.783  23.247  13.982  0.00  0.00    +0.000 C 
ATOM      4  O   THR C   1       3.851  23.792  13.671  0.00  0.00    +0.000 OA
ATOM      5  CB  THR C   1       2.152  22.593  16.289  0.00  0.00    +0.000 C 
ATOM      6  OG1 THR C   1       1.394  22.937  17.450  0.00  0.00    +0.000 OA
ATOM      7  CG2 THR C   1       3.701  22.380  16.668  0.00  0.00    +0.000 C 
ATOM      8  N   PHE C   2       2.266  22.205  13.332  0.00  0.00    +0.000 N 
ATOM      9  CA  PHE C   2       2.884  21.553  12.202  0.00  0.00    +0.000 C 
ATOM     10  C   PHE C   2       2.543  21.852  10.754  0.00  0.00    +0.000 C 
ATOM     11  O   PHE C   2       3.327  21.502   9.831  0.00  0.00    +0.000 OA
ATOM     12  CB  PHE C   2       2.742  20.056  12.434  0.00  0.00    +0.000 C 
ATOM     13  CG  PHE C   2       3.540  19.575  13.597  0.00  0.00    +0.000 A 
ATOM     14  CD2 PHE C   2       2.939  19.289  14.827  0.00  0.00    +0.000 A 
ATOM     15  CD1 PHE C   2       4.904  19.462  13.477  0.00  0.00    +0.000 A 
ATOM     16  CE2 PHE C   2       3.671  18.885  15.958  0.00  0.00    +0.000 A 
ATOM     17  CE1 PHE C   2       5.668  19.057  14.593  0.00  0.00    +0.000 A 
ATOM     18  CZ  PHE C   2       5.057  18.766  15.841  0.00  0.00    +0.000 A 
ATOM     19  H   THR C   1       0.431  24.712  14.267  0.00  0.00    +0.000 HD
ATOM     20  H   THR C   1       0.098  24.295  15.844  0.00  0.00    +0.000 HD
ATOM     21  H   THR C   1       0.068  23.133  14.652  0.00  0.00    +0.000 HD
ATOM     22  H   THR C   1       1.721  23.775  17.813  0.00  0.00    +0.000 HD
ATOM     23  H   PHE C   2       1.401  21.855  13.645  0.00  0.00    +0.000 HD
TER 
REMARK  Name = /data/user_data/xianyang/t3-aimnet-affinity-balanced/L2/P05177/pocket.pdb
REMARK                            x       y       z     vdW  Elec       q    Type
REMARK                         _______ _______ _______ _____ _____    ______ ____
ATOM      1  N   THR D   1       3.067   9.082  24.362  0.00  0.00    +0.000 N 
ATOM      2  CA  THR D   1       3.383  10.137  23.448  0.00  0.00    +0.000 C 
ATOM      3  C   THR D   1       4.830   9.965  22.950  0.00  0.00    +0.000 C 
ATOM      4  O   THR D   1       5.243  10.686  22.046  0.00  0.00    +0.000 OA
ATOM      5  CB  THR D   1       3.219  11.530  24.090  0.00  0.00    +0.000 C 
ATOM      6  OG1 THR D   1       4.097  11.651  25.212  0.00  0.00    +0.000 OA
ATOM      7  CG2 THR D   1       1.709  11.798  24.508  0.00  0.00    +0.000 C 
ATOM      8  H   THR D   1       3.189   8.182  23.898  0.00  0.00    +0.000 HD
ATOM      9  H   THR D   1       2.099   9.178  24.670  0.00  0.00    +0.000 HD
ATOM     10  H   THR D   1       3.688   9.134  25.170  0.00  0.00    +0.000 HD
ATOM     11  H   THR D   1       3.868  10.981  25.875  0.00  0.00    +0.000 HD
TER 
REMARK  Name = /data/user_data/xianyang/t3-aimnet-affinity-balanced/L2/P05177/pocket.pdb
REMARK                            x       y       z     vdW  Elec       q    Type
REMARK                         _______ _______ _______ _____ _____    ______ ____
ATOM      1  N   PHE E   1       4.828   9.635  19.409  0.00  0.00    +0.000 N 
ATOM      2  CA  PHE E   1       4.677  10.820  18.583  0.00  0.00    +0.000 C 
ATOM      3  C   PHE E   1       6.101  11.552  18.451  0.00  0.00    +0.000 C 
ATOM      4  O   PHE E   1       6.679  11.762  17.383  0.00  0.00    +0.000 OA
ATOM      5  CB  PHE E   1       3.736  11.791  19.259  0.00  0.00    +0.000 C 
ATOM      6  CG  PHE E   1       3.450  13.036  18.441  0.00  0.00    +0.000 A 
ATOM      7  CD1 PHE E   1       2.449  13.018  17.433  0.00  0.00    +0.000 A 
ATOM      8  CD2 PHE E   1       4.182  14.224  18.665  0.00  0.00    +0.000 A 
ATOM      9  CE1 PHE E   1       2.196  14.178  16.653  0.00  0.00    +0.000 A 
ATOM     10  CE2 PHE E   1       3.944  15.420  17.892  0.00  0.00    +0.000 A 
ATOM     11  CZ  PHE E   1       2.955  15.401  16.883  0.00  0.00    +0.000 A 
ATOM     12  N   VAL E   2       6.626  11.856  19.611  0.00  0.00    +0.000 N 
ATOM     13  CA  VAL E   2       7.842  12.658  19.821  0.00  0.00    +0.000 C 
ATOM     14  C   VAL E   2       9.133  12.142  19.213  0.00  0.00    +0.000 C 
ATOM     15  O   VAL E   2       9.982  12.918  18.700  0.00  0.00    +0.000 OA
ATOM     16  CB  VAL E   2       7.907  12.905  21.369  0.00  0.00    +0.000 C 
ATOM     17  CG2 VAL E   2       9.250  12.744  21.928  0.00  0.00    +0.000 C 
ATOM     18  CG1 VAL E   2       7.295  14.242  21.647  0.00  0.00    +0.000 C 
ATOM     19  H   PHE E   1       5.463   8.981  18.952  0.00  0.00    +0.000 HD
ATOM     20  H   PHE E   1       3.918   9.192  19.538  0.00  0.00    +0.000 HD
ATOM     21  H   PHE E   1       5.209   9.900  20.317  0.00  0.00    +0.000 HD
ATOM     22  H   VAL E   2       6.167  11.518  20.414  0.00  0.00    +0.000 HD
TER 
REMARK  Name = /data/user_data/xianyang/t3-aimnet-affinity-balanced/L2/P05177/pocket.pdb
REMARK                            x       y       z     vdW  Elec       q    Type
REMARK                         _______ _______ _______ _____ _____    ______ ____
ATOM      1  N   PHE F   1      -0.497   6.194  16.429  0.00  0.00    +0.000 N 
ATOM      2  CA  PHE F   1      -0.669   7.101  17.527  0.00  0.00    +0.000 C 
ATOM      3  C   PHE F   1      -1.464   8.302  17.066  0.00  0.00    +0.000 C 
ATOM      4  O   PHE F   1      -2.436   8.736  17.751  0.00  0.00    +0.000 OA
ATOM      5  CB  PHE F   1       0.696   7.592  18.106  0.00  0.00    +0.000 C 
ATOM      6  CG  PHE F   1       0.531   8.654  19.127  0.00  0.00    +0.000 A 
ATOM      7  CD2 PHE F   1       0.530   8.333  20.502  0.00  0.00    +0.000 A 
ATOM      8  CD1 PHE F   1       0.220   9.979  18.739  0.00  0.00    +0.000 A 
ATOM      9  CE2 PHE F   1       0.211   9.324  21.483  0.00  0.00    +0.000 A 
ATOM     10  CE1 PHE F   1      -0.108  10.956  19.723  0.00  0.00    +0.000 A 
ATOM     11  CZ  PHE F   1      -0.112  10.631  21.096  0.00  0.00    +0.000 A 
ATOM     12  N   ASN F   2      -1.106   8.828  15.905  0.00  0.00    +0.000 N 
ATOM     13  CA  ASN F   2      -1.781  10.004  15.393  0.00  0.00    +0.000 C 
ATOM     14  C   ASN F   2      -3.277   9.732  15.077  0.00  0.00    +0.000 C 
ATOM     15  O   ASN F   2      -4.123  10.577  15.351  0.00  0.00    +0.000 OA
ATOM     16  CB  ASN F   2      -1.047  10.540  14.155  0.00  0.00    +0.000 C 
ATOM     17  CG  ASN F   2       0.114  11.527  14.535  0.00  0.00    +0.000 C 
ATOM     18  OD1 ASN F   2      -0.144  12.717  14.809  0.00  0.00    +0.000 OA
ATOM     19  ND2 ASN F   2       1.378  11.030  14.525  0.00  0.00    +0.000 N 
ATOM     20  H   PHE F   1      -1.411   5.901  16.084  0.00  0.00    +0.000 HD
ATOM     21  H   PHE F   1       0.027   5.377  16.742  0.00  0.00    +0.000 HD
ATOM     22  H   PHE F   1       0.016   6.660  15.680  0.00  0.00    +0.000 HD
ATOM     23  H   ASN F   2      -0.377   8.418  15.386  0.00  0.00    +0.000 HD
ATOM     24  H   ASN F   2       1.533  10.084  14.303  0.00  0.00    +0.000 HD
ATOM     25  H   ASN F   2       2.139  11.616  14.740  0.00  0.00    +0.000 HD
TER 
REMARK  Name = /data/user_data/xianyang/t3-aimnet-affinity-balanced/L2/P05177/pocket.pdb
REMARK                            x       y       z     vdW  Elec       q    Type
REMARK                         _______ _______ _______ _____ _____    ______ ____
ATOM      1  N   PHE G   1      -4.988   9.419  18.397  0.00  0.00    +0.000 N 
ATOM      2  CA  PHE G   1      -5.057  10.744  19.019  0.00  0.00    +0.000 C 
ATOM      3  C   PHE G   1      -6.208  11.562  18.414  0.00  0.00    +0.000 C 
ATOM      4  O   PHE G   1      -6.985  12.160  19.127  0.00  0.00    +0.000 OA
ATOM      5  CB  PHE G   1      -3.780  11.534  18.732  0.00  0.00    +0.000 C 
ATOM      6  CG  PHE G   1      -3.683  12.842  19.460  0.00  0.00    +0.000 A 
ATOM      7  CD2 PHE G   1      -3.310  12.869  20.798  0.00  0.00    +0.000 A 
ATOM      8  CD1 PHE G   1      -3.916  14.047  18.808  0.00  0.00    +0.000 A 
ATOM      9  CE2 PHE G   1      -3.151  14.074  21.497  0.00  0.00    +0.000 A 
ATOM     10  CE1 PHE G   1      -3.763  15.281  19.498  0.00  0.00    +0.000 A 
ATOM     11  CZ  PHE G   1      -3.362  15.261  20.887  0.00  0.00    +0.000 A 
ATOM     12  H   PHE G   1      -5.846   8.904  18.597  0.00  0.00    +0.000 HD
ATOM     13  H   PHE G   1      -4.189   8.908  18.773  0.00  0.00    +0.000 HD
ATOM     14  H   PHE G   1      -4.881   9.522  17.388  0.00  0.00    +0.000 HD
TER 
REMARK  Name = /data/user_data/xianyang/t3-aimnet-affinity-balanced/L2/P05177/pocket.pdb
REMARK                            x       y       z     vdW  Elec       q    Type
REMARK                         _______ _______ _______ _____ _____    ______ ____
ATOM      1  N   ASN H   1      -6.597  20.237  19.628  0.00  0.00    +0.000 N 
ATOM      2  CA  ASN H   1      -5.695  19.117  19.370  0.00  0.00    +0.000 C 
ATOM      3  C   ASN H   1      -4.250  19.562  19.699  0.00  0.00    +0.000 C 
ATOM      4  O   ASN H   1      -3.487  18.821  20.337  0.00  0.00    +0.000 OA
ATOM      5  CB  ASN H   1      -5.705  18.679  17.906  0.00  0.00    +0.000 C 
ATOM      6  CG  ASN H   1      -7.074  18.182  17.449  0.00  0.00    +0.000 C 
ATOM      7  OD1 ASN H   1      -8.017  18.193  18.214  0.00  0.00    +0.000 OA
ATOM      8  ND2 ASN H   1      -7.174  17.775  16.198  0.00  0.00    +0.000 N 
ATOM      9  N   ASP H   2      -3.908  20.771  19.299  0.00  0.00    +0.000 N 
ATOM     10  CA  ASP H   2      -2.518  21.290  19.529  0.00  0.00    +0.000 C 
ATOM     11  C   ASP H   2      -2.323  21.633  21.017  0.00  0.00    +0.000 C 
ATOM     12  O   ASP H   2      -1.242  21.405  21.591  0.00  0.00    +0.000 OA
ATOM     13  CB  ASP H   2      -2.263  22.602  18.762  0.00  0.00    +0.000 C 
ATOM     14  CG  ASP H   2      -2.194  22.443  17.237  0.00  0.00    +0.000 C 
ATOM     15  OD2 ASP H   2      -1.088  22.152  16.738  0.00  0.00    +0.000 OA
ATOM     16  OD1 ASP H   2      -3.233  22.664  16.532  0.00  0.00    +0.000 OA
ATOM     17  H   ASN H   1      -7.555  19.958  19.415  0.00  0.00    +0.000 HD
ATOM     18  H   ASN H   1      -6.334  21.028  19.039  0.00  0.00    +0.000 HD
ATOM     19  H   ASN H   1      -6.532  20.507  20.609  0.00  0.00    +0.000 HD
ATOM     20  H   ASN H   1      -6.382  17.783  15.613  0.00  0.00    +0.000 HD
ATOM     21  H   ASN H   1      -8.040  17.463  15.850  0.00  0.00    +0.000 HD
ATOM     22  H   ASP H   2      -4.571  21.339  18.845  0.00  0.00    +0.000 HD
TER 
REMARK  Name = /data/user_data/xianyang/t3-aimnet-affinity-balanced/L2/P05177/pocket.pdb
REMARK                            x       y       z     vdW  Elec       q    Type
REMARK                         _______ _______ _______ _____ _____    ______ ____
ATOM      1  N   GLY I   1      -2.227  18.253  22.989  0.00  0.00    +0.000 N 
ATOM      2  CA  GLY I   1      -1.029  17.496  22.654  0.00  0.00    +0.000 C 
ATOM      3  C   GLY I   1       0.264  18.078  23.235  0.00  0.00    +0.000 C 
ATOM      4  O   GLY I   1       0.975  17.405  23.986  0.00  0.00    +0.000 OA
ATOM      5  N   ALA I   2       0.529  19.330  22.877  0.00  0.00    +0.000 N 
ATOM      6  CA  ALA I   2       1.722  20.061  23.320  0.00  0.00    +0.000 C 
ATOM      7  C   ALA I   2       1.687  20.285  24.826  0.00  0.00    +0.000 C 
ATOM      8  O   ALA I   2       2.676  20.036  25.519  0.00  0.00    +0.000 OA
ATOM      9  CB  ALA I   2       1.831  21.425  22.590  0.00  0.00    +0.000 C 
ATOM     10  N   GLY I   3       0.528  20.697  25.340  0.00  0.00    +0.000 N 
ATOM     11  CA  GLY I   3       0.453  20.974  26.756  0.00  0.00    +0.000 C 
ATOM     12  C   GLY I   3       0.656  19.806  27.691  0.00  0.00    +0.000 C 
ATOM     13  O   GLY I   3       1.187  19.947  28.805  0.00  0.00    +0.000 OA
ATOM     14  N   PHE I   4       0.185  18.653  27.258  0.00  0.00    +0.000 N 
ATOM     15  CA  PHE I   4       0.306  17.464  28.054  0.00  0.00    +0.000 C 
ATOM     16  C   PHE I   4       1.761  16.973  28.057  0.00  0.00    +0.000 C 
ATOM     17  O   PHE I   4       2.381  16.778  29.090  0.00  0.00    +0.000 OA
ATOM     18  CB  PHE I   4      -0.510  16.308  27.477  0.00  0.00    +0.000 C 
ATOM     19  CG  PHE I   4      -0.134  14.997  28.064  0.00  0.00    +0.000 A 
ATOM     20  CD2 PHE I   4      -0.417  14.725  29.410  0.00  0.00    +0.000 A 
ATOM     21  CD1 PHE I   4       0.700  14.140  27.377  0.00  0.00    +0.000 A 
ATOM     22  CE2 PHE I   4       0.147  13.649  30.048  0.00  0.00    +0.000 A 
ATOM     23  CE1 PHE I   4       1.283  13.037  28.028  0.00  0.00    +0.000 A 
ATOM     24  CZ  PHE I   4       1.007  12.804  29.365  0.00  0.00    +0.000 A 
ATOM     25  N   ASP I   5       2.268  16.750  26.868  0.00  0.00    +0.000 N 
ATOM     26  CA  ASP I   5       3.573  16.134  26.766  0.00  0.00    +0.000 C 
ATOM     27  C   ASP I   5       4.704  16.913  27.372  0.00  0.00    +0.000 C 
ATOM     28  O   ASP I   5       5.517  16.340  28.090  0.00  0.00    +0.000 OA
ATOM     29  CB  ASP I   5       3.889  15.799  25.320  0.00  0.00    +0.000 C 
ATOM     30  CG  ASP I   5       5.225  15.023  25.156  0.00  0.00    +0.000 C 
ATOM     31  OD1 ASP I   5       6.204  15.620  24.683  0.00  0.00    +0.000 OA
ATOM     32  OD2 ASP I   5       5.308  13.828  25.505  0.00  0.00    +0.000 OA
ATOM     33  N   THR I   6       4.770  18.201  27.062  0.00  0.00    +0.000 N 
ATOM     34  CA  THR I   6       5.846  19.083  27.553  0.00  0.00    +0.000 C 
ATOM     35  C   THR I   6       5.940  19.179  29.047  0.00  0.00    +0.000 C 
ATOM     36  O   THR I   6       7.012  18.983  29.620  0.00  0.00    +0.000 OA
ATOM     37  CB  THR I   6       5.693  20.544  27.045  0.00  0.00    +0.000 C 
ATOM     38  OG1 THR I   6       4.382  20.985  27.311  0.00  0.00    +0.000 OA
ATOM     39  CG2 THR I   6       5.943  20.654  25.585  0.00  0.00    +0.000 C 
ATOM     40  H   GLY I   1      -3.041  17.805  22.568  0.00  0.00    +0.000 HD
ATOM     41  H   GLY I   1      -2.139  19.204  22.631  0.00  0.00    +0.000 HD
ATOM     42  H   GLY I   1      -2.340  18.280  24.002  0.00  0.00    +0.000 HD
ATOM     43  H   ALA I   2      -0.108  19.791  22.284  0.00  0.00    +0.000 HD
ATOM     44  H   GLY I   3      -0.263  20.811  24.765  0.00  0.00    +0.000 HD
ATOM     45  H   PHE I   4      -0.255  18.607  26.378  0.00  0.00    +0.000 HD
ATOM     46  H   ASP I   5       1.768  16.998  26.057  0.00  0.00    +0.000 HD
ATOM     47  H   THR I   6       4.073  18.584  26.481  0.00  0.00    +0.000 HD
ATOM     48  H   THR I   6       3.749  20.422  26.838  0.00  0.00    +0.000 HD
TER 
REMARK  Name = /data/user_data/xianyang/t3-aimnet-affinity-balanced/L2/P05177/pocket.pdb
REMARK                            x       y       z     vdW  Elec       q    Type
REMARK                         _______ _______ _______ _____ _____    ______ ____
ATOM      1  N   LEU J   1      13.696  20.119  25.066  0.00  0.00    +0.000 N 
ATOM      2  CA  LEU J   1      13.301  20.505  23.701  0.00  0.00    +0.000 C 
ATOM      3  C   LEU J   1      14.661  20.839  23.120  0.00  0.00    +0.000 C 
ATOM      4  O   LEU J   1      15.059  22.010  23.114  0.00  0.00    +0.000 OA
ATOM      5  CB  LEU J   1      12.434  21.771  23.636  0.00  0.00    +0.000 C 
ATOM      6  CG  LEU J   1      11.057  21.063  23.635  0.00  0.00    +0.000 C 
ATOM      7  CD2 LEU J   1      10.357  21.279  24.882  0.00  0.00    +0.000 C 
ATOM      8  CD1 LEU J   1      10.292  21.436  22.445  0.00  0.00    +0.000 C 
ATOM      9  H   LEU J   1      14.267  19.274  25.029  0.00  0.00    +0.000 HD
ATOM     10  H   LEU J   1      12.861  19.941  25.624  0.00  0.00    +0.000 HD
ATOM     11  H   LEU J   1      14.234  20.874  25.491  0.00  0.00    +0.000 HD
TER 
REMARK  Name = /data/user_data/xianyang/t3-aimnet-affinity-balanced/L2/P05177/pocket.pdb
REMARK                            x       y       z     vdW  Elec       q    Type
REMARK                         _______ _______ _______ _____ _____    ______ ____
ATOM      1  N   ILE K   1      10.596  23.257  16.940  0.00  0.00    +0.000 N 
ATOM      2  CA  ILE K   1      10.050  22.547  15.816  0.00  0.00    +0.000 C 
ATOM      3  C   ILE K   1      10.740  23.238  14.600  0.00  0.00    +0.000 C 
ATOM      4  O   ILE K   1      10.998  24.456  14.639  0.00  0.00    +0.000 OA
ATOM      5  CB  ILE K   1       8.512  22.755  15.805  0.00  0.00    +0.000 C 
ATOM      6  CG1 ILE K   1       7.952  22.006  17.054  0.00  0.00    +0.000 C 
ATOM      7  CG2 ILE K   1       8.012  22.359  14.508  0.00  0.00    +0.000 C 
ATOM      8  CD1 ILE K   1       6.561  21.574  17.054  0.00  0.00    +0.000 C 
ATOM      9  H   ILE K   1      11.608  23.131  16.963  0.00  0.00    +0.000 HD
ATOM     10  H   ILE K   1      10.189  22.894  17.802  0.00  0.00    +0.000 HD
ATOM     11  H   ILE K   1      10.379  24.250  16.853  0.00  0.00    +0.000 HD
TER 
REMARK  Name = /data/user_data/xianyang/t3-aimnet-affinity-balanced/L2/P05177/pocket.pdb
REMARK                            x       y       z     vdW  Elec       q    Type
REMARK                         _______ _______ _______ _____ _____    ______ ____
ATOM      1  N   LEU L   1      11.377  15.092  19.919  0.00  0.00    +0.000 N 
ATOM      2  CA  LEU L   1      10.908  16.449  19.919  0.00  0.00    +0.000 C 
ATOM      3  C   LEU L   1      11.026  16.895  21.365  0.00  0.00    +0.000 C 
ATOM      4  O   LEU L   1      11.388  18.038  21.650  0.00  0.00    +0.000 OA
ATOM      5  CB  LEU L   1       9.437  16.523  19.432  0.00  0.00    +0.000 C 
ATOM      6  CG  LEU L   1       8.787  17.900  19.608  0.00  0.00    +0.000 C 
ATOM      7  CD2 LEU L   1       9.703  19.004  19.043  0.00  0.00    +0.000 C 
ATOM      8  CD1 LEU L   1       7.412  17.908  18.870  0.00  0.00    +0.000 C 
ATOM      9  N   THR L   2      10.589  16.024  22.280  0.00  0.00    +0.000 N 
ATOM     10  CA  THR L   2      10.797  16.275  23.709  0.00  0.00    +0.000 C 
ATOM     11  C   THR L   2      11.655  15.065  24.052  0.00  0.00    +0.000 C 
ATOM     12  O   THR L   2      11.419  13.919  23.605  0.00  0.00    +0.000 OA
ATOM     13  CB  THR L   2       9.456  16.379  24.633  0.00  0.00    +0.000 C 
ATOM     14  OG1 THR L   2       8.606  15.218  24.471  0.00  0.00    +0.000 OA
ATOM     15  CG2 THR L   2       8.706  17.648  24.294  0.00  0.00    +0.000 C 
ATOM     16  H   LEU L   1      11.329  14.716  18.972  0.00  0.00    +0.000 HD
ATOM     17  H   LEU L   1      10.793  14.530  20.538  0.00  0.00    +0.000 HD
ATOM     18  H   LEU L   1      12.343  15.066  20.247  0.00  0.00    +0.000 HD
ATOM     19  H   THR L   2      10.123  15.206  21.991  0.00  0.00    +0.000 HD
ATOM     20  H   THR L   2       8.315  15.157  23.548  0.00  0.00    +0.000 HD
TER 
