REMARK  Name = /data/user_data/xianyang/t3-aimnet-affinity-balanced/L2/P56817/pocket.pdb
REMARK                            x       y       z     vdW  Elec       q    Type
REMARK                         _______ _______ _______ _____ _____    ______ ____
ATOM      1  N   GLY A   1      77.486  50.382  -4.726  0.00  0.00    +0.000 N 
ATOM      2  CA  GLY A   1      77.606  49.558  -3.541  0.00  0.00    +0.000 C 
ATOM      3  C   GLY A   1      78.551  48.389  -3.722  0.00  0.00    +0.000 C 
ATOM      4  O   GLY A   1      79.143  48.210  -4.780  0.00  0.00    +0.000 OA
ATOM      5  N   LYS A   2      78.703  47.608  -2.669  0.00  0.00    +0.000 N 
ATOM      6  CA  LYS A   2      79.392  46.326  -2.742  0.00  0.00    +0.000 C 
ATOM      7  C   LYS A   2      78.432  45.262  -2.270  0.00  0.00    +0.000 C 
ATOM      8  O   LYS A   2      77.532  45.543  -1.473  0.00  0.00    +0.000 OA
ATOM      9  CB  LYS A   2      80.630  46.325  -1.844  0.00  0.00    +0.000 C 
ATOM     10  CG  LYS A   2      81.734  47.288  -2.266  0.00  0.00    +0.000 C 
ATOM     11  CD  LYS A   2      82.477  46.765  -3.483  0.00  0.00    +0.000 C 
ATOM     12  CE  LYS A   2      83.766  47.533  -3.733  0.00  0.00    +0.000 C 
ATOM     13  NZ  LYS A   2      84.316  47.207  -5.080  0.00  0.00    +0.000 N 
ATOM     14  N   SER A   3      78.633  44.028  -2.738  0.00  0.00    +0.000 N 
ATOM     15  CA  SER A   3      77.762  42.910  -2.357  0.00  0.00    +0.000 C 
ATOM     16  C   SER A   3      77.593  42.802  -0.858  0.00  0.00    +0.000 C 
ATOM     17  O   SER A   3      78.568  42.827  -0.089  0.00  0.00    +0.000 OA
ATOM     18  CB  SER A   3      78.285  41.577  -2.918  0.00  0.00    +0.000 C 
ATOM     19  OG  SER A   3      78.367  41.652  -4.328  0.00  0.00    +0.000 OA
ATOM     20  N   GLY A   4      76.339  42.730  -0.427  0.00  0.00    +0.000 N 
ATOM     21  CA  GLY A   4      76.039  42.561   0.978  0.00  0.00    +0.000 C 
ATOM     22  C   GLY A   4      76.202  43.809   1.825  0.00  0.00    +0.000 C 
ATOM     23  O   GLY A   4      75.970  43.748   3.028  0.00  0.00    +0.000 OA
ATOM     24  N   GLN A   5      76.589  44.937   1.226  0.00  0.00    +0.000 N 
ATOM     25  CA  GLN A   5      76.781  46.187   1.992  0.00  0.00    +0.000 C 
ATOM     26  C   GLN A   5      75.798  47.302   1.643  0.00  0.00    +0.000 C 
ATOM     27  O   GLN A   5      75.946  48.426   2.127  0.00  0.00    +0.000 OA
ATOM     28  CB  GLN A   5      78.208  46.720   1.810  0.00  0.00    +0.000 C 
ATOM     29  CG  GLN A   5      79.278  45.788   2.330  0.00  0.00    +0.000 C 
ATOM     30  CD  GLN A   5      80.684  46.371   2.222  0.00  0.00    +0.000 C 
ATOM     31  OE1 GLN A   5      80.913  47.379   1.557  0.00  0.00    +0.000 OA
ATOM     32  NE2 GLN A   5      81.627  45.728   2.876  0.00  0.00    +0.000 N 
ATOM     33  N   GLY A   6      74.818  47.000   0.796  0.00  0.00    +0.000 N 
ATOM     34  CA  GLY A   6      73.751  47.937   0.467  0.00  0.00    +0.000 C 
ATOM     35  C   GLY A   6      74.004  48.776  -0.769  0.00  0.00    +0.000 C 
ATOM     36  O   GLY A   6      75.069  48.717  -1.365  0.00  0.00    +0.000 OA
ATOM     37  N   TYR A   7      72.980  49.529  -1.159  0.00  0.00    +0.000 N 
ATOM     38  CA  TYR A   7      73.021  50.422  -2.305  0.00  0.00    +0.000 C 
ATOM     39  C   TYR A   7      72.950  51.850  -1.795  0.00  0.00    +0.000 C 
ATOM     40  O   TYR A   7      72.033  52.188  -1.040  0.00  0.00    +0.000 OA
ATOM     41  CB  TYR A   7      71.836  50.157  -3.233  0.00  0.00    +0.000 C 
ATOM     42  CG  TYR A   7      71.875  48.810  -3.888  0.00  0.00    +0.000 A 
ATOM     43  CD2 TYR A   7      71.503  47.673  -3.191  0.00  0.00    +0.000 A 
ATOM     44  CD1 TYR A   7      72.303  48.667  -5.213  0.00  0.00    +0.000 A 
ATOM     45  CE2 TYR A   7      71.539  46.419  -3.792  0.00  0.00    +0.000 A 
ATOM     46  CE1 TYR A   7      72.343  47.422  -5.811  0.00  0.00    +0.000 A 
ATOM     47  CZ  TYR A   7      71.964  46.312  -5.097  0.00  0.00    +0.000 A 
ATOM     48  OH  TYR A   7      72.001  45.081  -5.688  0.00  0.00    +0.000 OA
ATOM     49  H   GLY A   1      76.839  51.149  -4.543  0.00  0.00    +0.000 HD
ATOM     50  H   GLY A   1      77.133  49.817  -5.499  0.00  0.00    +0.000 HD
ATOM     51  H   GLY A   1      78.401  50.760  -4.971  0.00  0.00    +0.000 HD
ATOM     52  H   LYS A   2      78.338  47.902  -1.803  0.00  0.00    +0.000 HD
ATOM     53  H   LYS A   2      83.639  47.469  -5.796  0.00  0.00    +0.000 HD
ATOM     54  H   LYS A   2      84.503  46.206  -5.138  0.00  0.00    +0.000 HD
ATOM     55  H   LYS A   2      85.183  47.724  -5.227  0.00  0.00    +0.000 HD
ATOM     56  H   SER A   3      79.384  43.864  -3.354  0.00  0.00    +0.000 HD
ATOM     57  H   SER A   3      78.975  42.365  -4.579  0.00  0.00    +0.000 HD
ATOM     58  H   GLY A   4      75.601  42.793  -1.075  0.00  0.00    +0.000 HD
ATOM     59  H   GLN A   5      76.750  44.937   0.255  0.00  0.00    +0.000 HD
ATOM     60  H   GLN A   5      82.556  46.053   2.847  0.00  0.00    +0.000 HD
ATOM     61  H   GLN A   5      81.404  44.922   3.395  0.00  0.00    +0.000 HD
ATOM     62  H   GLY A   6      74.813  46.110   0.375  0.00  0.00    +0.000 HD
ATOM     63  H   TYR A   7      72.144  49.479  -0.641  0.00  0.00    +0.000 HD
ATOM     64  H   TYR A   7      72.288  44.996  -6.576  0.00  0.00    +0.000 HD
TER 
REMARK  Name = /data/user_data/xianyang/t3-aimnet-affinity-balanced/L2/P56817/pocket.pdb
REMARK                            x       y       z     vdW  Elec       q    Type
REMARK                         _______ _______ _______ _____ _____    ______ ____
ATOM      1  N   LEU B   1      73.038  55.257   2.237  0.00  0.00    +0.000 N 
ATOM      2  CA  LEU B   1      72.304  54.028   1.977  0.00  0.00    +0.000 C 
ATOM      3  C   LEU B   1      70.838  54.305   1.689  0.00  0.00    +0.000 C 
ATOM      4  O   LEU B   1      70.172  54.970   2.475  0.00  0.00    +0.000 OA
ATOM      5  CB  LEU B   1      72.395  53.107   3.183  0.00  0.00    +0.000 C 
ATOM      6  CG  LEU B   1      71.686  51.757   3.026  0.00  0.00    +0.000 C 
ATOM      7  CD1 LEU B   1      72.636  50.804   2.351  0.00  0.00    +0.000 C 
ATOM      8  CD2 LEU B   1      71.231  51.184   4.348  0.00  0.00    +0.000 C 
ATOM      9  H   LEU B   1      72.973  55.870   1.424  0.00  0.00    +0.000 HD
ATOM     10  H   LEU B   1      74.017  55.036   2.419  0.00  0.00    +0.000 HD
ATOM     11  H   LEU B   1      72.638  55.726   3.050  0.00  0.00    +0.000 HD
TER 
REMARK  Name = /data/user_data/xianyang/t3-aimnet-affinity-balanced/L2/P56817/pocket.pdb
REMARK                            x       y       z     vdW  Elec       q    Type
REMARK                         _______ _______ _______ _____ _____    ______ ____
ATOM      1  N   ASP C   1      67.199  53.239   1.763  0.00  0.00    +0.000 N 
ATOM      2  CA  ASP C   1      66.510  52.311   2.662  0.00  0.00    +0.000 C 
ATOM      3  C   ASP C   1      64.993  52.517   2.651  0.00  0.00    +0.000 C 
ATOM      4  O   ASP C   1      64.484  53.407   3.337  0.00  0.00    +0.000 OA
ATOM      5  CB  ASP C   1      67.064  52.483   4.093  0.00  0.00    +0.000 C 
ATOM      6  CG  ASP C   1      66.538  51.431   5.076  0.00  0.00    +0.000 C 
ATOM      7  OD1 ASP C   1      65.936  50.430   4.639  0.00  0.00    +0.000 OA
ATOM      8  OD2 ASP C   1      66.747  51.580   6.306  0.00  0.00    +0.000 OA
ATOM      9  N   THR C   2      64.267  51.666   1.919  0.00  0.00    +0.000 N 
ATOM     10  CA  THR C   2      62.803  51.734   1.935  0.00  0.00    +0.000 C 
ATOM     11  C   THR C   2      62.170  51.111   3.194  0.00  0.00    +0.000 C 
ATOM     12  O   THR C   2      60.955  51.159   3.358  0.00  0.00    +0.000 OA
ATOM     13  CB  THR C   2      62.153  51.135   0.661  0.00  0.00    +0.000 C 
ATOM     14  OG1 THR C   2      62.381  49.721   0.591  0.00  0.00    +0.000 OA
ATOM     15  CG2 THR C   2      62.694  51.833  -0.593  0.00  0.00    +0.000 C 
ATOM     16  N   GLY C   3      62.999  50.567   4.088  0.00  0.00    +0.000 N 
ATOM     17  CA  GLY C   3      62.529  49.947   5.331  0.00  0.00    +0.000 C 
ATOM     18  C   GLY C   3      62.622  50.772   6.604  0.00  0.00    +0.000 C 
ATOM     19  O   GLY C   3      62.361  50.250   7.703  0.00  0.00    +0.000 OA
ATOM     20  N   SER C   4      62.981  52.041   6.467  0.00  0.00    +0.000 N 
ATOM     21  CA  SER C   4      62.992  52.991   7.579  0.00  0.00    +0.000 C 
ATOM     22  CB  SER C   4      62.675  54.410   7.081  0.00  0.00    +0.000 C 
ATOM     23  OG  SER C   4      62.500  54.623   5.890  0.00  0.00    +0.000 OA
ATOM     24  C   SER C   4      64.350  52.940   8.290  0.00  0.00    +0.000 C 
ATOM     25  O   SER C   4      65.355  53.434   7.437  0.00  0.00    +0.000 OA
ATOM     26  H   ASP C   1      66.836  53.128   0.816  0.00  0.00    +0.000 HD
ATOM     27  H   ASP C   1      68.199  53.039   1.769  0.00  0.00    +0.000 HD
ATOM     28  H   ASP C   1      67.042  54.197   2.078  0.00  0.00    +0.000 HD
ATOM     29  H   THR C   2      64.719  50.989   1.365  0.00  0.00    +0.000 HD
ATOM     30  H   THR C   2      63.335  49.549   0.544  0.00  0.00    +0.000 HD
ATOM     31  H   GLY C   3      63.966  50.583   3.905  0.00  0.00    +0.000 HD
ATOM     32  H   SER C   4      63.253  52.358   5.576  0.00  0.00    +0.000 HD
ATOM     33  H   SER C   4      65.155  54.353   7.200  0.00  0.00    +0.000 HD
TER 
REMARK  Name = /data/user_data/xianyang/t3-aimnet-affinity-balanced/L2/P56817/pocket.pdb
REMARK                            x       y       z     vdW  Elec       q    Type
REMARK                         _______ _______ _______ _____ _____    ______ ____
ATOM      1  N   TYR D   1      68.136  48.838  16.919  0.00  0.00    +0.000 N 
ATOM      2  CA  TYR D   1      67.606  47.804  16.035  0.00  0.00    +0.000 C 
ATOM      3  C   TYR D   1      67.738  46.471  16.782  0.00  0.00    +0.000 C 
ATOM      4  O   TYR D   1      68.069  46.477  17.974  0.00  0.00    +0.000 OA
ATOM      5  CB  TYR D   1      68.357  47.801  14.708  0.00  0.00    +0.000 C 
ATOM      6  CG  TYR D   1      68.334  49.138  13.979  0.00  0.00    +0.000 A 
ATOM      7  CD1 TYR D   1      67.141  49.717  13.571  0.00  0.00    +0.000 A 
ATOM      8  CD2 TYR D   1      69.519  49.811  13.693  0.00  0.00    +0.000 A 
ATOM      9  CE1 TYR D   1      67.123  50.944  12.903  0.00  0.00    +0.000 A 
ATOM     10  CE2 TYR D   1      69.511  51.022  13.028  0.00  0.00    +0.000 A 
ATOM     11  CZ  TYR D   1      68.318  51.582  12.633  0.00  0.00    +0.000 A 
ATOM     12  OH  TYR D   1      68.356  52.782  11.958  0.00  0.00    +0.000 OA
ATOM     13  N   THR D   2      67.470  45.341  16.128  0.00  0.00    +0.000 N 
ATOM     14  CA  THR D   2      67.567  44.047  16.824  0.00  0.00    +0.000 C 
ATOM     15  C   THR D   2      68.998  43.702  17.234  0.00  0.00    +0.000 C 
ATOM     16  O   THR D   2      69.211  43.098  18.292  0.00  0.00    +0.000 OA
ATOM     17  CB  THR D   2      66.986  42.876  16.007  0.00  0.00    +0.000 C 
ATOM     18  OG1 THR D   2      67.584  42.849  14.707  0.00  0.00    +0.000 OA
ATOM     19  CG2 THR D   2      65.469  43.004  15.880  0.00  0.00    +0.000 C 
ATOM     20  H   TYR D   1      68.067  49.746  16.460  0.00  0.00    +0.000 HD
ATOM     21  H   TYR D   1      69.113  48.637  17.130  0.00  0.00    +0.000 HD
ATOM     22  H   TYR D   1      67.597  48.854  17.785  0.00  0.00    +0.000 HD
ATOM     23  H   TYR D   1      67.559  53.187  11.677  0.00  0.00    +0.000 HD
ATOM     24  H   THR D   2      67.207  45.371  15.180  0.00  0.00    +0.000 HD
ATOM     25  H   THR D   2      67.385  43.677  14.242  0.00  0.00    +0.000 HD
TER 
REMARK  Name = /data/user_data/xianyang/t3-aimnet-affinity-balanced/L2/P56817/pocket.pdb
REMARK                            x       y       z     vdW  Elec       q    Type
REMARK                         _______ _______ _______ _____ _____    ______ ____
ATOM      1  N   TRP E   1      72.001  53.288  16.915  0.00  0.00    +0.000 N 
ATOM      2  CA  TRP E   1      72.660  54.589  16.884  0.00  0.00    +0.000 C 
ATOM      3  C   TRP E   1      71.904  55.610  17.675  0.00  0.00    +0.000 C 
ATOM      4  O   TRP E   1      70.719  55.448  17.974  0.00  0.00    +0.000 OA
ATOM      5  CB  TRP E   1      72.918  55.057  15.459  0.00  0.00    +0.000 C 
ATOM      6  CG  TRP E   1      71.687  55.195  14.605  0.00  0.00    +0.000 C 
ATOM      7  CD1 TRP E   1      71.175  54.269  13.703  0.00  0.00    +0.000 C 
ATOM      8  CD2 TRP E   1      70.797  56.359  14.506  0.00  0.00    +0.000 C 
ATOM      9  NE1 TRP E   1      70.047  54.762  13.085  0.00  0.00    +0.000 NA
ATOM     10  CE2 TRP E   1      69.773  56.013  13.524  0.00  0.00    +0.000 C 
ATOM     11  CE3 TRP E   1      70.743  57.604  15.125  0.00  0.00    +0.000 C 
ATOM     12  CZ2 TRP E   1      68.742  56.879  13.207  0.00  0.00    +0.000 C 
ATOM     13  CZ3 TRP E   1      69.711  58.479  14.786  0.00  0.00    +0.000 C 
ATOM     14  CH2 TRP E   1      68.733  58.125  13.844  0.00  0.00    +0.000 C 
ATOM     15  H   TRP E   1      72.543  52.619  16.367  0.00  0.00    +0.000 HD
ATOM     16  H   TRP E   1      71.064  53.372  16.520  0.00  0.00    +0.000 HD
ATOM     17  H   TRP E   1      71.935  52.963  17.880  0.00  0.00    +0.000 HD
TER 
REMARK  Name = /data/user_data/xianyang/t3-aimnet-affinity-balanced/L2/P56817/pocket.pdb
REMARK                            x       y       z     vdW  Elec       q    Type
REMARK                         _______ _______ _______ _____ _____    ______ ____
ATOM      1  N   LYS F   1      77.502  48.537  16.021  0.00  0.00    +0.000 N 
ATOM      2  CA  LYS F   1      77.183  47.553  14.984  0.00  0.00    +0.000 C 
ATOM      3  C   LYS F   1      76.211  48.086  13.937  0.00  0.00    +0.000 C 
ATOM      4  O   LYS F   1      75.322  47.369  13.452  0.00  0.00    +0.000 OA
ATOM      5  CB  LYS F   1      76.716  46.224  15.612  0.00  0.00    +0.000 C 
ATOM      6  CG  LYS F   1      77.843  45.494  16.349  0.00  0.00    +0.000 C 
ATOM      7  CD  LYS F   1      77.389  44.223  17.067  0.00  0.00    +0.000 C 
ATOM      8  CE  LYS F   1      78.586  43.526  17.720  0.00  0.00    +0.000 C 
ATOM      9  NZ  LYS F   1      78.328  42.147  18.226  0.00  0.00    +0.000 N 
ATOM     10  N   PHE F   2      76.440  49.338  13.545  0.00  0.00    +0.000 N 
ATOM     11  CA  PHE F   2      75.612  50.007  12.575  0.00  0.00    +0.000 C 
ATOM     12  C   PHE F   2      76.415  50.210  11.294  0.00  0.00    +0.000 C 
ATOM     13  O   PHE F   2      76.109  49.608  10.264  0.00  0.00    +0.000 OA
ATOM     14  CB  PHE F   2      75.114  51.333  13.154  0.00  0.00    +0.000 C 
ATOM     15  CG  PHE F   2      74.331  52.158  12.181  0.00  0.00    +0.000 A 
ATOM     16  CD1 PHE F   2      73.161  51.672  11.639  0.00  0.00    +0.000 A 
ATOM     17  CD2 PHE F   2      74.765  53.430  11.805  0.00  0.00    +0.000 A 
ATOM     18  CE1 PHE F   2      72.425  52.421  10.749  0.00  0.00    +0.000 A 
ATOM     19  CE2 PHE F   2      74.025  54.190  10.907  0.00  0.00    +0.000 A 
ATOM     20  CZ  PHE F   2      72.866  53.670  10.368  0.00  0.00    +0.000 A 
ATOM     21  N   PHE F   3      77.465  51.022  11.365  0.00  0.00    +0.000 N 
ATOM     22  CA  PHE F   3      78.349  51.227  10.216  0.00  0.00    +0.000 C 
ATOM     23  C   PHE F   3      79.099  49.934   9.892  0.00  0.00    +0.000 C 
ATOM     24  O   PHE F   3      79.405  49.137  10.785  0.00  0.00    +0.000 OA
ATOM     25  CB  PHE F   3      79.318  52.389  10.475  0.00  0.00    +0.000 C 
ATOM     26  CG  PHE F   3      78.631  53.715  10.677  0.00  0.00    +0.000 A 
ATOM     27  CD1 PHE F   3      77.807  54.237   9.688  0.00  0.00    +0.000 A 
ATOM     28  CD2 PHE F   3      78.815  54.445  11.838  0.00  0.00    +0.000 A 
ATOM     29  CE1 PHE F   3      77.159  55.442   9.861  0.00  0.00    +0.000 A 
ATOM     30  CE2 PHE F   3      78.174  55.658  12.021  0.00  0.00    +0.000 A 
ATOM     31  CZ  PHE F   3      77.346  56.162  11.031  0.00  0.00    +0.000 A 
ATOM     32  N   ILE F   4      79.371  49.720   8.610  0.00  0.00    +0.000 N 
ATOM     33  CA  ILE F   4      80.015  48.506   8.144  0.00  0.00    +0.000 C 
ATOM     34  C   ILE F   4      81.492  48.801   7.909  0.00  0.00    +0.000 C 
ATOM     35  O   ILE F   4      81.833  49.686   7.127  0.00  0.00    +0.000 OA
ATOM     36  CB  ILE F   4      79.370  47.985   6.848  0.00  0.00    +0.000 C 
ATOM     37  CG1 ILE F   4      77.924  47.543   7.094  0.00  0.00    +0.000 C 
ATOM     38  CG2 ILE F   4      80.175  46.834   6.260  0.00  0.00    +0.000 C 
ATOM     39  CD1 ILE F   4      77.134  47.390   5.806  0.00  0.00    +0.000 C 
ATOM     40  H   LYS F   1      77.808  49.406  15.583  0.00  0.00    +0.000 HD
ATOM     41  H   LYS F   1      78.248  48.175  16.615  0.00  0.00    +0.000 HD
ATOM     42  H   LYS F   1      76.673  48.715  16.587  0.00  0.00    +0.000 HD
ATOM     43  H   LYS F   1      77.629  42.182  18.968  0.00  0.00    +0.000 HD
ATOM     44  H   LYS F   1      79.194  41.752  18.594  0.00  0.00    +0.000 HD
ATOM     45  H   LYS F   1      77.985  41.563  17.463  0.00  0.00    +0.000 HD
ATOM     46  H   PHE F   2      77.203  49.824  13.933  0.00  0.00    +0.000 HD
ATOM     47  H   PHE F   3      77.652  51.495  12.208  0.00  0.00    +0.000 HD
ATOM     48  H   ILE F   4      79.127  50.410   7.952  0.00  0.00    +0.000 HD
TER 
REMARK  Name = /data/user_data/xianyang/t3-aimnet-affinity-balanced/L2/P56817/pocket.pdb
REMARK                            x       y       z     vdW  Elec       q    Type
REMARK                         _______ _______ _______ _____ _____    ______ ____
ATOM      1  N   TRP G   1      79.605  53.982   2.628  0.00  0.00    +0.000 N 
ATOM      2  CA  TRP G   1      78.520  54.887   2.977  0.00  0.00    +0.000 C 
ATOM      3  C   TRP G   1      78.617  55.351   4.417  0.00  0.00    +0.000 C 
ATOM      4  O   TRP G   1      79.164  54.654   5.277  0.00  0.00    +0.000 OA
ATOM      5  CB  TRP G   1      77.149  54.297   2.666  0.00  0.00    +0.000 C 
ATOM      6  CG  TRP G   1      76.824  52.976   3.325  0.00  0.00    +0.000 C 
ATOM      7  CD1 TRP G   1      76.948  51.711   2.771  0.00  0.00    +0.000 C 
ATOM      8  CD2 TRP G   1      76.273  52.747   4.654  0.00  0.00    +0.000 C 
ATOM      9  NE1 TRP G   1      76.533  50.749   3.640  0.00  0.00    +0.000 NA
ATOM     10  CE2 TRP G   1      76.110  51.299   4.785  0.00  0.00    +0.000 C 
ATOM     11  CE3 TRP G   1      75.899  53.560   5.710  0.00  0.00    +0.000 C 
ATOM     12  CZ2 TRP G   1      75.618  50.719   5.940  0.00  0.00    +0.000 C 
ATOM     13  CZ3 TRP G   1      75.414  52.964   6.866  0.00  0.00    +0.000 C 
ATOM     14  CH2 TRP G   1      75.270  51.583   6.978  0.00  0.00    +0.000 C 
ATOM     15  H   TRP G   1      79.506  53.692   1.655  0.00  0.00    +0.000 HD
ATOM     16  H   TRP G   1      79.571  53.161   3.232  0.00  0.00    +0.000 HD
ATOM     17  H   TRP G   1      80.498  54.458   2.752  0.00  0.00    +0.000 HD
TER 
REMARK  Name = /data/user_data/xianyang/t3-aimnet-affinity-balanced/L2/P56817/pocket.pdb
REMARK                            x       y       z     vdW  Elec       q    Type
REMARK                         _______ _______ _______ _____ _____    ______ ____
ATOM      1  N   ILE H   1      72.157  56.899   6.248  0.00  0.00    +0.000 N 
ATOM      2  CA  ILE H   1      71.001  56.170   5.711  0.00  0.00    +0.000 C 
ATOM      3  C   ILE H   1      69.877  57.119   5.317  0.00  0.00    +0.000 C 
ATOM      4  O   ILE H   1      69.603  58.102   6.012  0.00  0.00    +0.000 OA
ATOM      5  CB  ILE H   1      70.468  55.073   6.688  0.00  0.00    +0.000 C 
ATOM      6  CG1 ILE H   1      70.073  55.638   8.067  0.00  0.00    +0.000 C 
ATOM      7  CG2 ILE H   1      71.515  53.975   6.905  0.00  0.00    +0.000 C 
ATOM      8  CD1 ILE H   1      69.392  54.609   8.967  0.00  0.00    +0.000 C 
ATOM      9  H   ILE H   1      72.462  57.599   5.572  0.00  0.00    +0.000 HD
ATOM     10  H   ILE H   1      72.919  56.245   6.426  0.00  0.00    +0.000 HD
ATOM     11  H   ILE H   1      71.894  57.360   7.119  0.00  0.00    +0.000 HD
TER 
REMARK  Name = /data/user_data/xianyang/t3-aimnet-affinity-balanced/L2/P56817/pocket.pdb
REMARK                            x       y       z     vdW  Elec       q    Type
REMARK                         _______ _______ _______ _____ _____    ______ ____
ATOM      1  N   VAL I   1      78.162  46.473  -6.856  0.00  0.00    +0.000 N 
ATOM      2  CA  VAL I   1      76.784  46.487  -7.345  0.00  0.00    +0.000 C 
ATOM      3  C   VAL I   1      76.450  47.890  -7.803  0.00  0.00    +0.000 C 
ATOM      4  O   VAL I   1      77.182  48.837  -7.524  0.00  0.00    +0.000 OA
ATOM      5  CB  VAL I   1      75.767  46.028  -6.281  0.00  0.00    +0.000 C 
ATOM      6  CG1 VAL I   1      76.039  44.584  -5.880  0.00  0.00    +0.000 C 
ATOM      7  CG2 VAL I   1      75.777  46.965  -5.070  0.00  0.00    +0.000 C 
ATOM      8  H   VAL I   1      78.789  46.784  -7.598  0.00  0.00    +0.000 HD
ATOM      9  H   VAL I   1      78.413  45.526  -6.574  0.00  0.00    +0.000 HD
ATOM     10  H   VAL I   1      78.245  47.099  -6.055  0.00  0.00    +0.000 HD
TER 
REMARK  Name = /data/user_data/xianyang/t3-aimnet-affinity-balanced/L2/P56817/pocket.pdb
REMARK                            x       y       z     vdW  Elec       q    Type
REMARK                         _______ _______ _______ _____ _____    ______ ____
ATOM      1  N   TYR J   1      55.630  51.240   6.924  0.00  0.00    +0.000 N 
ATOM      2  CA  TYR J   1      56.495  50.560   5.967  0.00  0.00    +0.000 C 
ATOM      3  C   TYR J   1      55.773  50.582   4.608  0.00  0.00    +0.000 C 
ATOM      4  O   TYR J   1      54.612  50.968   4.544  0.00  0.00    +0.000 OA
ATOM      5  CB  TYR J   1      56.713  49.108   6.360  0.00  0.00    +0.000 C 
ATOM      6  CG  TYR J   1      57.357  48.944   7.709  0.00  0.00    +0.000 A 
ATOM      7  CD1 TYR J   1      58.738  48.934   7.839  0.00  0.00    +0.000 A 
ATOM      8  CD2 TYR J   1      56.580  48.819   8.863  0.00  0.00    +0.000 A 
ATOM      9  CE1 TYR J   1      59.334  48.807   9.076  0.00  0.00    +0.000 A 
ATOM     10  CE2 TYR J   1      57.172  48.673  10.112  0.00  0.00    +0.000 A 
ATOM     11  CZ  TYR J   1      58.544  48.683  10.204  0.00  0.00    +0.000 A 
ATOM     12  OH  TYR J   1      59.136  48.546  11.428  0.00  0.00    +0.000 OA
ATOM     13  H   TYR J   1      55.501  52.210   6.636  0.00  0.00    +0.000 HD
ATOM     14  H   TYR J   1      56.059  51.214   7.849  0.00  0.00    +0.000 HD
ATOM     15  H   TYR J   1      54.724  50.772   6.956  0.00  0.00    +0.000 HD
ATOM     16  H   TYR J   1      60.070  48.552  11.500  0.00  0.00    +0.000 HD
TER 
REMARK  Name = /data/user_data/xianyang/t3-aimnet-affinity-balanced/L2/P56817/pocket.pdb
REMARK                            x       y       z     vdW  Elec       q    Type
REMARK                         _______ _______ _______ _____ _____    ______ ____
ATOM      1  N   ASP K   1      61.700  46.180   1.070  0.00  0.00    +0.000 N 
ATOM      2  CA  ASP K   1      62.781  46.798   1.871  0.00  0.00    +0.000 C 
ATOM      3  C   ASP K   1      64.136  46.707   1.171  0.00  0.00    +0.000 C 
ATOM      4  O   ASP K   1      64.790  45.662   1.175  0.00  0.00    +0.000 OA
ATOM      5  CB  ASP K   1      62.852  46.134   3.258  0.00  0.00    +0.000 C 
ATOM      6  CG  ASP K   1      63.901  46.771   4.172  0.00  0.00    +0.000 C 
ATOM      7  OD1 ASP K   1      64.484  47.819   3.811  0.00  0.00    +0.000 OA
ATOM      8  OD2 ASP K   1      64.145  46.207   5.271  0.00  0.00    +0.000 OA
ATOM      9  N   SER K   2      64.557  47.819   0.584  0.00  0.00    +0.000 N 
ATOM     10  CA  SER K   2      65.841  47.906  -0.101  0.00  0.00    +0.000 C 
ATOM     11  C   SER K   2      67.034  47.859   0.865  0.00  0.00    +0.000 C 
ATOM     12  O   SER K   2      68.170  47.730   0.413  0.00  0.00    +0.000 OA
ATOM     13  CB  SER K   2      65.907  49.194  -0.901  0.00  0.00    +0.000 C 
ATOM     14  OG  SER K   2      65.892  50.333  -0.053  0.00  0.00    +0.000 OA
ATOM     15  N   GLY K   3      66.773  47.977   2.166  0.00  0.00    +0.000 N 
ATOM     16  CA  GLY K   3      67.822  47.925   3.207  0.00  0.00    +0.000 C 
ATOM     17  C   GLY K   3      67.979  46.578   3.904  0.00  0.00    +0.000 C 
ATOM     18  O   GLY K   3      68.609  46.496   4.965  0.00  0.00    +0.000 OA
ATOM     19  N   THR K   4      67.373  45.536   3.331  0.00  0.00    +0.000 N 
ATOM     20  CA  THR K   4      67.549  44.156   3.788  0.00  0.00    +0.000 C 
ATOM     21  C   THR K   4      68.024  43.344   2.601  0.00  0.00    +0.000 C 
ATOM     22  O   THR K   4      67.536  43.496   1.476  0.00  0.00    +0.000 OA
ATOM     23  CB  THR K   4      66.241  43.575   4.352  0.00  0.00    +0.000 C 
ATOM     24  OG1 THR K   4      65.886  44.289   5.521  0.00  0.00    +0.000 OA
ATOM     25  CG2 THR K   4      66.353  42.064   4.675  0.00  0.00    +0.000 C 
ATOM     26  N   THR K   5      69.026  42.506   2.835  0.00  0.00    +0.000 N 
ATOM     27  CA  THR K   5      69.574  41.681   1.782  0.00  0.00    +0.000 C 
ATOM     28  C   THR K   5      68.603  40.532   1.465  0.00  0.00    +0.000 C 
ATOM     29  O   THR K   5      68.284  40.303   0.313  0.00  0.00    +0.000 OA
ATOM     30  CB  THR K   5      70.946  41.087   2.202  0.00  0.00    +0.000 C 
ATOM     31  OG1 THR K   5      71.909  42.145   2.335  0.00  0.00    +0.000 OA
ATOM     32  CG2 THR K   5      71.447  40.095   1.169  0.00  0.00    +0.000 C 
ATOM     33  H   ASP K   1      61.659  46.625   0.153  0.00  0.00    +0.000 HD
ATOM     34  H   ASP K   1      60.808  46.305   1.549  0.00  0.00    +0.000 HD
ATOM     35  H   ASP K   1      61.888  45.184   0.956  0.00  0.00    +0.000 HD
ATOM     36  H   SER K   2      63.980  48.616   0.612  0.00  0.00    +0.000 HD
ATOM     37  H   SER K   2      65.068  50.345   0.458  0.00  0.00    +0.000 HD
ATOM     38  H   GLY K   3      65.838  48.105   2.448  0.00  0.00    +0.000 HD
ATOM     39  H   THR K   4      66.779  45.703   2.564  0.00  0.00    +0.000 HD
ATOM     40  H   THR K   4      66.581  44.182   6.189  0.00  0.00    +0.000 HD
ATOM     41  H   THR K   5      69.403  42.445   3.742  0.00  0.00    +0.000 HD
ATOM     42  H   THR K   5      72.015  42.595   1.482  0.00  0.00    +0.000 HD
TER 
REMARK  Name = /data/user_data/xianyang/t3-aimnet-affinity-balanced/L2/P56817/pocket.pdb
REMARK                            x       y       z     vdW  Elec       q    Type
REMARK                         _______ _______ _______ _____ _____    ______ ____
ATOM      1  N   ARG L   1      73.371  33.474  -2.825  0.00  0.00    +0.000 N 
ATOM      2  CA  ARG L   1      74.206  34.653  -3.068  0.00  0.00    +0.000 C 
ATOM      3  C   ARG L   1      75.683  34.345  -2.838  0.00  0.00    +0.000 C 
ATOM      4  O   ARG L   1      76.022  33.774  -1.799  0.00  0.00    +0.000 OA
ATOM      5  CB  ARG L   1      73.762  35.804  -2.163  0.00  0.00    +0.000 C 
ATOM      6  CG  ARG L   1      72.309  36.194  -2.380  0.00  0.00    +0.000 C 
ATOM      7  CD  ARG L   1      71.867  37.296  -1.440  0.00  0.00    +0.000 C 
ATOM      8  NE  ARG L   1      72.320  38.608  -1.887  0.00  0.00    +0.000 N 
ATOM      9  CZ  ARG L   1      71.737  39.335  -2.844  0.00  0.00    +0.000 C 
ATOM     10  NH1 ARG L   1      70.660  38.889  -3.510  0.00  0.00    +0.000 N 
ATOM     11  NH2 ARG L   1      72.245  40.518  -3.151  0.00  0.00    +0.000 N 
ATOM     12  H   ARG L   1      73.674  32.712  -3.432  0.00  0.00    +0.000 HD
ATOM     13  H   ARG L   1      72.397  33.701  -3.024  0.00  0.00    +0.000 HD
ATOM     14  H   ARG L   1      73.461  33.188  -1.850  0.00  0.00    +0.000 HD
ATOM     15  H   ARG L   1      73.117  38.987  -1.450  0.00  0.00    +0.000 HD
ATOM     16  H   ARG L   1      70.250  39.445  -4.211  0.00  0.00    +0.000 HD
ATOM     17  H   ARG L   1      70.281  38.006  -3.297  0.00  0.00    +0.000 HD
ATOM     18  H   ARG L   1      71.827  41.066  -3.854  0.00  0.00    +0.000 HD
ATOM     19  H   ARG L   1      73.041  40.850  -2.676  0.00  0.00    +0.000 HD
TER 
REMARK  Name = /data/user_data/xianyang/t3-aimnet-affinity-balanced/L2/P56817/pocket.pdb
REMARK                            x       y       z     vdW  Elec       q    Type
REMARK                         _______ _______ _______ _____ _____    ______ ____
ATOM      1  N   ALA M   1      66.678  42.748  -1.023  0.00  0.00    +0.000 N 
ATOM      2  CA  ALA M   1      67.445  42.755  -2.251  0.00  0.00    +0.000 C 
ATOM      3  C   ALA M   1      67.263  41.473  -3.079  0.00  0.00    +0.000 C 
ATOM      4  O   ALA M   1      67.318  41.512  -4.297  0.00  0.00    +0.000 OA
ATOM      5  CB  ALA M   1      68.921  42.973  -1.924  0.00  0.00    +0.000 C 
ATOM      6  H   ALA M   1      65.692  42.603  -1.239  0.00  0.00    +0.000 HD
ATOM      7  H   ALA M   1      66.793  43.642  -0.545  0.00  0.00    +0.000 HD
ATOM      8  H   ALA M   1      67.009  41.995  -0.420  0.00  0.00    +0.000 HD
TER 
REMARK  Name = /data/user_data/xianyang/t3-aimnet-affinity-balanced/L2/P56817/pocket.pdb
REMARK                            x       y       z     vdW  Elec       q    Type
REMARK                         _______ _______ _______ _____ _____    ______ ____
ATOM      1  N   GLU N   1      66.309  42.814  -6.670  0.00  0.00    +0.000 N 
ATOM      2  CA  GLU N   1      67.293  42.695  -7.741  0.00  0.00    +0.000 C 
ATOM      3  C   GLU N   1      66.736  42.042  -9.013  0.00  0.00    +0.000 C 
ATOM      4  O   GLU N   1      67.335  42.159 -10.073  0.00  0.00    +0.000 OA
ATOM      5  CB  GLU N   1      68.549  41.962  -7.245  0.00  0.00    +0.000 C 
ATOM      6  CG  GLU N   1      69.427  42.859  -6.377  0.00  0.00    +0.000 C 
ATOM      7  CD  GLU N   1      70.509  42.108  -5.623  0.00  0.00    +0.000 C 
ATOM      8  OE1 GLU N   1      70.678  40.880  -5.843  0.00  0.00    +0.000 OA
ATOM      9  OE2 GLU N   1      71.198  42.750  -4.797  0.00  0.00    +0.000 OA
ATOM     10  H   GLU N   1      65.484  43.302  -7.019  0.00  0.00    +0.000 HD
ATOM     11  H   GLU N   1      66.713  43.339  -5.894  0.00  0.00    +0.000 HD
ATOM     12  H   GLU N   1      66.042  41.883  -6.348  0.00  0.00    +0.000 HD
TER 
