REMARK  Name = /data/user_data/xianyang/t3-aimnet-affinity-balanced/L3/Q62645/pocket.pdb
REMARK                            x       y       z     vdW  Elec       q    Type
REMARK                         _______ _______ _______ _____ _____    ______ ____
ATOM      1  N   GLU A   1       4.737  45.597   4.864  0.00  0.00    +0.000 N 
ATOM      2  CA  GLU A   1       5.716  45.764   5.919  0.00  0.00    +0.000 C 
ATOM      3  C   GLU A   1       6.809  46.664   5.396  0.00  0.00    +0.000 C 
ATOM      4  O   GLU A   1       7.720  46.211   4.725  0.00  0.00    +0.000 OA
ATOM      5  CB  GLU A   1       6.312  44.426   6.354  0.00  0.00    +0.000 C 
ATOM      6  CG  GLU A   1       7.435  44.620   7.372  0.00  0.00    +0.000 C 
ATOM      7  CD  GLU A   1       7.473  43.549   8.449  0.00  0.00    +0.000 C 
ATOM      8  OE1 GLU A   1       7.624  42.362   8.116  0.00  0.00    +0.000 OA
ATOM      9  OE2 GLU A   1       7.371  43.901   9.635  0.00  0.00    +0.000 OA
ATOM     10  H   GLU A   1       4.362  46.508   4.601  0.00  0.00    +0.000 HD
ATOM     11  H   GLU A   1       3.979  45.000   5.195  0.00  0.00    +0.000 HD
ATOM     12  H   GLU A   1       5.181  45.165   4.054  0.00  0.00    +0.000 HD
TER 
REMARK  Name = /data/user_data/xianyang/t3-aimnet-affinity-balanced/L3/Q62645/pocket.pdb
REMARK                            x       y       z     vdW  Elec       q    Type
REMARK                         _______ _______ _______ _____ _____    ______ ____
ATOM      1  N   HIS B   1       2.325  37.197   8.574  0.00  0.00    +0.000 N 
ATOM      2  CA  HIS B   1       3.342  36.366   7.928  0.00  0.00    +0.000 C 
ATOM      3  C   HIS B   1       2.964  34.891   7.921  0.00  0.00    +0.000 C 
ATOM      4  O   HIS B   1       2.998  34.230   6.875  0.00  0.00    +0.000 OA
ATOM      5  CB  HIS B   1       4.708  36.564   8.588  0.00  0.00    +0.000 C 
ATOM      6  CG  HIS B   1       5.122  37.999   8.673  0.00  0.00    +0.000 C 
ATOM      7  ND1 HIS B   1       6.035  38.567   7.809  0.00  0.00    +0.000 NA
ATOM      8  CD2 HIS B   1       4.724  38.989   9.505  0.00  0.00    +0.000 C 
ATOM      9  CE1 HIS B   1       6.192  39.845   8.119  0.00  0.00    +0.000 C 
ATOM     10  NE2 HIS B   1       5.412  40.123   9.146  0.00  0.00    +0.000 NA
ATOM     11  N   GLY B   2       2.626  34.366   9.089  0.00  0.00    +0.000 N 
ATOM     12  CA  GLY B   2       2.259  32.963   9.166  0.00  0.00    +0.000 C 
ATOM     13  C   GLY B   2       2.353  32.441  10.581  0.00  0.00    +0.000 C 
ATOM     14  O   GLY B   2       3.391  32.518  11.228  0.00  0.00    +0.000 OA
ATOM     15  H   HIS B   1       1.425  37.048   8.118  0.00  0.00    +0.000 HD
ATOM     16  H   HIS B   1       2.588  38.179   8.495  0.00  0.00    +0.000 HD
ATOM     17  H   HIS B   1       2.253  36.942   9.559  0.00  0.00    +0.000 HD
ATOM     18  H   GLY B   2       2.624  34.924   9.900  0.00  0.00    +0.000 HD
TER 
REMARK  Name = /data/user_data/xianyang/t3-aimnet-affinity-balanced/L3/Q62645/pocket.pdb
REMARK                            x       y       z     vdW  Elec       q    Type
REMARK                         _______ _______ _______ _____ _____    ______ ____
ATOM      1  N   SER C   1       8.524  40.366   3.507  0.00  0.00    +0.000 N 
ATOM      2  CA  SER C   1       9.483  40.201   4.589  0.00  0.00    +0.000 C 
ATOM      3  C   SER C   1       9.171  38.888   5.323  0.00  0.00    +0.000 C 
ATOM      4  O   SER C   1       8.869  38.875   6.512  0.00  0.00    +0.000 OA
ATOM      5  CB  SER C   1       9.392  41.399   5.529  0.00  0.00    +0.000 C 
ATOM      6  OG  SER C   1       8.040  41.790   5.693  0.00  0.00    +0.000 OA
ATOM      7  N   LEU C   2       9.254  37.783   4.591  0.00  0.00    +0.000 N 
ATOM      8  CA  LEU C   2       8.827  36.487   5.105  0.00  0.00    +0.000 C 
ATOM      9  C   LEU C   2      10.030  35.647   5.564  0.00  0.00    +0.000 C 
ATOM     10  O   LEU C   2      10.841  35.217   4.752  0.00  0.00    +0.000 OA
ATOM     11  CB  LEU C   2       8.052  35.747   4.006  0.00  0.00    +0.000 C 
ATOM     12  CG  LEU C   2       7.441  34.397   4.381  0.00  0.00    +0.000 C 
ATOM     13  CD2 LEU C   2       6.474  34.550   5.537  0.00  0.00    +0.000 C 
ATOM     14  CD1 LEU C   2       6.737  33.786   3.153  0.00  0.00    +0.000 C 
ATOM     15  N   THR C   3      10.132  35.401   6.863  0.00  0.00    +0.000 N 
ATOM     16  CA  THR C   3      11.318  34.766   7.423  0.00  0.00    +0.000 C 
ATOM     17  C   THR C   3      11.301  33.240   7.316  0.00  0.00    +0.000 C 
ATOM     18  O   THR C   3      10.314  32.585   7.648  0.00  0.00    +0.000 OA
ATOM     19  CB  THR C   3      11.512  35.186   8.901  0.00  0.00    +0.000 C 
ATOM     20  OG1 THR C   3      11.630  36.614   8.968  0.00  0.00    +0.000 OA
ATOM     21  CG2 THR C   3      12.758  34.547   9.494  0.00  0.00    +0.000 C 
ATOM     22  N   ILE C   4      12.416  32.685   6.856  0.00  0.00    +0.000 N 
ATOM     23  CA  ILE C   4      12.587  31.236   6.809  0.00  0.00    +0.000 C 
ATOM     24  C   ILE C   4      12.806  30.690   8.211  0.00  0.00    +0.000 C 
ATOM     25  O   ILE C   4      13.705  31.124   8.928  0.00  0.00    +0.000 OA
ATOM     26  CB  ILE C   4      13.779  30.835   5.911  0.00  0.00    +0.000 C 
ATOM     27  CG1 ILE C   4      13.580  31.382   4.494  0.00  0.00    +0.000 C 
ATOM     28  CG2 ILE C   4      13.954  29.315   5.901  0.00  0.00    +0.000 C 
ATOM     29  CD1 ILE C   4      14.806  31.227   3.585  0.00  0.00    +0.000 C 
ATOM     30  H   SER C   1       8.582  39.566   2.876  0.00  0.00    +0.000 HD
ATOM     31  H   SER C   1       8.736  41.221   2.993  0.00  0.00    +0.000 HD
ATOM     32  H   SER C   1       7.582  40.426   3.894  0.00  0.00    +0.000 HD
ATOM     33  H   SER C   1       7.669  42.038   4.832  0.00  0.00    +0.000 HD
ATOM     34  H   LEU C   2       9.614  37.840   3.676  0.00  0.00    +0.000 HD
ATOM     35  H   THR C   3       9.392  35.652   7.461  0.00  0.00    +0.000 HD
ATOM     36  H   THR C   3      12.401  36.899   8.452  0.00  0.00    +0.000 HD
ATOM     37  H   ILE C   4      13.145  33.265   6.539  0.00  0.00    +0.000 HD
TER 
REMARK  Name = /data/user_data/xianyang/t3-aimnet-affinity-balanced/L3/Q62645/pocket.pdb
REMARK                            x       y       z     vdW  Elec       q    Type
REMARK                         _______ _______ _______ _____ _____    ______ ____
ATOM      1  N   ARG D   1       8.093  26.445   9.248  0.00  0.00    +0.000 N 
ATOM      2  CA  ARG D   1       7.530  26.792   7.947  0.00  0.00    +0.000 C 
ATOM      3  C   ARG D   1       8.160  25.955   6.825  0.00  0.00    +0.000 C 
ATOM      4  O   ARG D   1       7.468  25.501   5.920  0.00  0.00    +0.000 OA
ATOM      5  CB  ARG D   1       7.732  28.288   7.677  0.00  0.00    +0.000 C 
ATOM      6  CG  ARG D   1       6.980  29.180   8.666  0.00  0.00    +0.000 C 
ATOM      7  CD  ARG D   1       7.515  30.619   8.665  0.00  0.00    +0.000 C 
ATOM      8  NE  ARG D   1       6.695  31.495   9.499  0.00  0.00    +0.000 N 
ATOM      9  CZ  ARG D   1       6.847  32.815   9.576  0.00  0.00    +0.000 C 
ATOM     10  NH1 ARG D   1       7.800  33.408   8.875  0.00  0.00    +0.000 N 
ATOM     11  NH2 ARG D   1       6.051  33.533  10.355  0.00  0.00    +0.000 N 
ATOM     12  H   ARG D   1       7.956  25.449   9.423  0.00  0.00    +0.000 HD
ATOM     13  H   ARG D   1       7.626  26.986   9.976  0.00  0.00    +0.000 HD
ATOM     14  H   ARG D   1       9.091  26.657   9.254  0.00  0.00    +0.000 HD
ATOM     15  H   ARG D   1       5.983  31.082  10.039  0.00  0.00    +0.000 HD
ATOM     16  H   ARG D   1       8.391  32.873   8.297  0.00  0.00    +0.000 HD
ATOM     17  H   ARG D   1       7.918  34.384   8.932  0.00  0.00    +0.000 HD
ATOM     18  H   ARG D   1       6.166  34.509  10.410  0.00  0.00    +0.000 HD
ATOM     19  H   ARG D   1       5.345  33.090  10.879  0.00  0.00    +0.000 HD
TER 
REMARK  Name = /data/user_data/xianyang/t3-aimnet-affinity-balanced/L3/Q62645/pocket.pdb
REMARK                            x       y       z     vdW  Elec       q    Type
REMARK                         _______ _______ _______ _____ _____    ______ ____
ATOM      1  N   THR E   1       7.287  42.399  21.587  0.00  0.00    +0.000 N 
ATOM      2  CA  THR E   1       7.458  42.184  20.167  0.00  0.00    +0.000 C 
ATOM      3  C   THR E   1       6.083  42.309  19.506  0.00  0.00    +0.000 C 
ATOM      4  O   THR E   1       5.082  42.545  20.180  0.00  0.00    +0.000 OA
ATOM      5  CB  THR E   1       8.053  40.793  19.922  0.00  0.00    +0.000 C 
ATOM      6  OG1 THR E   1       8.427  40.643  18.543  0.00  0.00    +0.000 OA
ATOM      7  CG2 THR E   1       7.055  39.700  20.339  0.00  0.00    +0.000 C 
ATOM      8  N   VAL E   2       6.040  42.211  18.181  0.00  0.00    +0.000 N 
ATOM      9  CA  VAL E   2       4.769  42.040  17.498  0.00  0.00    +0.000 C 
ATOM     10  C   VAL E   2       4.576  40.540  17.411  0.00  0.00    +0.000 C 
ATOM     11  O   VAL E   2       5.387  39.850  16.813  0.00  0.00    +0.000 OA
ATOM     12  CB  VAL E   2       4.814  42.607  16.071  0.00  0.00    +0.000 C 
ATOM     13  CG1 VAL E   2       3.485  42.307  15.343  0.00  0.00    +0.000 C 
ATOM     14  CG2 VAL E   2       5.086  44.110  16.115  0.00  0.00    +0.000 C 
ATOM     15  N   PRO E   3       3.510  40.024  18.016  0.00  0.00    +0.000 N 
ATOM     16  CA  PRO E   3       3.369  38.569  18.147  0.00  0.00    +0.000 C 
ATOM     17  C   PRO E   3       2.980  37.887  16.842  0.00  0.00    +0.000 C 
ATOM     18  O   PRO E   3       2.670  38.577  15.877  0.00  0.00    +0.000 OA
ATOM     19  CB  PRO E   3       2.223  38.424  19.144  0.00  0.00    +0.000 C 
ATOM     20  CG  PRO E   3       1.394  39.647  18.931  0.00  0.00    +0.000 C 
ATOM     21  CD  PRO E   3       2.388  40.755  18.626  0.00  0.00    +0.000 C 
ATOM     22  N   ASN E   4       3.009  36.554  16.853  0.00  0.00    +0.000 N 
ATOM     23  CA  ASN E   4       2.460  35.684  15.804  0.00  0.00    +0.000 C 
ATOM     24  C   ASN E   4       3.426  35.305  14.691  0.00  0.00    +0.000 C 
ATOM     25  O   ASN E   4       3.078  34.494  13.821  0.00  0.00    +0.000 OA
ATOM     26  CB  ASN E   4       1.177  36.247  15.169  0.00  0.00    +0.000 C 
ATOM     27  CG  ASN E   4       0.082  36.516  16.178  0.00  0.00    +0.000 C 
ATOM     28  OD1 ASN E   4      -0.054  35.811  17.173  0.00  0.00    +0.000 OA
ATOM     29  ND2 ASN E   4      -0.717  37.540  15.915  0.00  0.00    +0.000 N 
ATOM     30  N   GLY E   5       4.615  35.890  14.699  0.00  0.00    +0.000 N 
ATOM     31  CA  GLY E   5       5.584  35.652  13.640  0.00  0.00    +0.000 C 
ATOM     32  C   GLY E   5       6.800  34.863  14.093  0.00  0.00    +0.000 C 
ATOM     33  O   GLY E   5       6.799  34.262  15.181  0.00  0.00    +0.000 OA
ATOM     34  N   SER E   6       7.843  34.861  13.262  0.00  0.00    +0.000 N 
ATOM     35  CA  SER E   6       9.029  34.053  13.539  0.00  0.00    +0.000 C 
ATOM     36  C   SER E   6       9.758  34.531  14.783  0.00  0.00    +0.000 C 
ATOM     37  O   SER E   6      10.367  33.729  15.493  0.00  0.00    +0.000 OA
ATOM     38  CB  SER E   6       9.991  34.045  12.351  0.00  0.00    +0.000 C 
ATOM     39  OG  SER E   6      10.353  35.362  12.011  0.00  0.00    +0.000 OA
ATOM     40  N   THR E   7       9.702  35.831  15.049  0.00  0.00    +0.000 N 
ATOM     41  CA  THR E   7      10.361  36.350  16.242  0.00  0.00    +0.000 C 
ATOM     42  C   THR E   7       9.737  35.755  17.498  0.00  0.00    +0.000 C 
ATOM     43  O   THR E   7      10.440  35.157  18.320  0.00  0.00    +0.000 OA
ATOM     44  CB  THR E   7      10.329  37.885  16.299  0.00  0.00    +0.000 C 
ATOM     45  OG1 THR E   7      11.054  38.406  15.176  0.00  0.00    +0.000 OA
ATOM     46  CG2 THR E   7      11.006  38.366  17.585  0.00  0.00    +0.000 C 
ATOM     47  N   GLU E   8       8.426  35.899  17.652  0.00  0.00    +0.000 N 
ATOM     48  CA  GLU E   8       7.783  35.341  18.845  0.00  0.00    +0.000 C 
ATOM     49  C   GLU E   8       7.979  33.821  18.921  0.00  0.00    +0.000 C 
ATOM     50  O   GLU E   8       8.212  33.270  19.999  0.00  0.00    +0.000 OA
ATOM     51  CB  GLU E   8       6.295  35.684  18.920  0.00  0.00    +0.000 C 
ATOM     52  CG  GLU E   8       5.692  35.294  20.282  0.00  0.00    +0.000 C 
ATOM     53  CD  GLU E   8       4.182  35.182  20.296  0.00  0.00    +0.000 C 
ATOM     54  OE1 GLU E   8       3.549  35.195  19.218  0.00  0.00    +0.000 OA
ATOM     55  OE2 GLU E   8       3.619  35.058  21.409  0.00  0.00    +0.000 OA
ATOM     56  H   THR E   1       6.891  43.326  21.745  0.00  0.00    +0.000 HD
ATOM     57  H   THR E   1       8.192  42.332  22.052  0.00  0.00    +0.000 HD
ATOM     58  H   THR E   1       6.657  41.691  21.965  0.00  0.00    +0.000 HD
ATOM     59  H   THR E   1       7.640  40.735  17.983  0.00  0.00    +0.000 HD
ATOM     60  H   VAL E   2       6.874  42.255  17.660  0.00  0.00    +0.000 HD
ATOM     61  H   ASN E   4       3.433  36.117  17.627  0.00  0.00    +0.000 HD
ATOM     62  H   ASN E   4      -0.574  38.081  15.105  0.00  0.00    +0.000 HD
ATOM     63  H   ASN E   4      -1.454  37.760  16.530  0.00  0.00    +0.000 HD
ATOM     64  H   GLY E   5       4.848  36.499  15.437  0.00  0.00    +0.000 HD
ATOM     65  H   SER E   6       7.814  35.413  12.448  0.00  0.00    +0.000 HD
ATOM     66  H   SER E   6      10.792  35.782  12.767  0.00  0.00    +0.000 HD
ATOM     67  H   THR E   7       9.219  36.440  14.445  0.00  0.00    +0.000 HD
ATOM     68  H   THR E   7      11.971  38.092  15.209  0.00  0.00    +0.000 HD
ATOM     69  H   GLU E   8       7.893  36.374  16.974  0.00  0.00    +0.000 HD
TER 
REMARK  Name = /data/user_data/xianyang/t3-aimnet-affinity-balanced/L3/Q62645/pocket.pdb
REMARK                            x       y       z     vdW  Elec       q    Type
REMARK                         _______ _______ _______ _____ _____    ______ ____
ATOM      1  N   TYR F   1      12.508  42.408  17.631  0.00  0.00    +0.000 N 
ATOM      2  CA  TYR F   1      11.829  42.133  16.365  0.00  0.00    +0.000 C 
ATOM      3  C   TYR F   1      12.794  41.749  15.263  0.00  0.00    +0.000 C 
ATOM      4  O   TYR F   1      14.013  41.699  15.468  0.00  0.00    +0.000 OA
ATOM      5  CB  TYR F   1      11.002  43.352  15.943  0.00  0.00    +0.000 C 
ATOM      6  CG  TYR F   1      10.003  43.068  14.845  0.00  0.00    +0.000 A 
ATOM      7  CD2 TYR F   1       9.019  42.095  15.003  0.00  0.00    +0.000 A 
ATOM      8  CD1 TYR F   1      10.045  43.772  13.649  0.00  0.00    +0.000 A 
ATOM      9  CE2 TYR F   1       8.103  41.830  13.978  0.00  0.00    +0.000 A 
ATOM     10  CE1 TYR F   1       9.143  43.511  12.632  0.00  0.00    +0.000 A 
ATOM     11  CZ  TYR F   1       8.177  42.546  12.802  0.00  0.00    +0.000 A 
ATOM     12  OH  TYR F   1       7.283  42.287  11.776  0.00  0.00    +0.000 OA
ATOM     13  N   ASP F   2      12.225  41.464  14.091  0.00  0.00    +0.000 N 
ATOM     14  CA  ASP F   2      12.984  41.127  12.906  0.00  0.00    +0.000 C 
ATOM     15  C   ASP F   2      14.124  42.119  12.690  0.00  0.00    +0.000 C 
ATOM     16  O   ASP F   2      13.920  43.326  12.736  0.00  0.00    +0.000 OA
ATOM     17  CB  ASP F   2      12.045  41.124  11.693  0.00  0.00    +0.000 C 
ATOM     18  CG  ASP F   2      12.778  40.906  10.397  0.00  0.00    +0.000 C 
ATOM     19  OD2 ASP F   2      13.127  39.748  10.103  0.00  0.00    +0.000 OA
ATOM     20  OD1 ASP F   2      12.994  41.890   9.665  0.00  0.00    +0.000 OA
ATOM     21  H   TYR F   1      13.057  41.593  17.907  0.00  0.00    +0.000 HD
ATOM     22  H   TYR F   1      11.815  42.611  18.351  0.00  0.00    +0.000 HD
ATOM     23  H   TYR F   1      13.126  43.212  17.518  0.00  0.00    +0.000 HD
ATOM     24  H   TYR F   1       7.333  42.774  10.977  0.00  0.00    +0.000 HD
ATOM     25  H   ASP F   2      11.243  41.484  14.029  0.00  0.00    +0.000 HD
TER 
REMARK  Name = /data/user_data/xianyang/t3-aimnet-affinity-balanced/L3/Q62645/pocket.pdb
REMARK                            x       y       z     vdW  Elec       q    Type
REMARK                         _______ _______ _______ _____ _____    ______ ____
ATOM      1  N   TYR G   1      15.044  36.228   4.599  0.00  0.00    +0.000 N 
ATOM      2  CA  TYR G   1      13.728  36.249   3.955  0.00  0.00    +0.000 C 
ATOM      3  C   TYR G   1      13.802  35.325   2.748  0.00  0.00    +0.000 C 
ATOM      4  O   TYR G   1      14.800  35.326   2.026  0.00  0.00    +0.000 OA
ATOM      5  CB  TYR G   1      13.378  37.644   3.426  0.00  0.00    +0.000 C 
ATOM      6  CG  TYR G   1      13.107  38.713   4.471  0.00  0.00    +0.000 A 
ATOM      7  CD2 TYR G   1      12.817  38.389   5.791  0.00  0.00    +0.000 A 
ATOM      8  CD1 TYR G   1      13.123  40.055   4.113  0.00  0.00    +0.000 A 
ATOM      9  CE2 TYR G   1      12.567  39.401   6.745  0.00  0.00    +0.000 A 
ATOM     10  CE1 TYR G   1      12.873  41.041   5.029  0.00  0.00    +0.000 A 
ATOM     11  CZ  TYR G   1      12.600  40.719   6.338  0.00  0.00    +0.000 A 
ATOM     12  OH  TYR G   1      12.354  41.736   7.221  0.00  0.00    +0.000 OA
ATOM     13  H   TYR G   1      15.242  35.286   4.937  0.00  0.00    +0.000 HD
ATOM     14  H   TYR G   1      15.049  36.879   5.384  0.00  0.00    +0.000 HD
ATOM     15  H   TYR G   1      15.757  36.504   3.924  0.00  0.00    +0.000 HD
ATOM     16  H   TYR G   1      12.380  42.626   6.929  0.00  0.00    +0.000 HD
TER 
