REMARK  Name = /data/user_data/xianyang/t3-aimnet-affinity-balanced/L2/O95819/pocket.pdb
REMARK                            x       y       z     vdW  Elec       q    Type
REMARK                         _______ _______ _______ _____ _____    ______ ____
ATOM      1  N   VAL A   1     -18.352   1.901  27.174  0.00  0.00    +0.000 N 
ATOM      2  CA  VAL A   1     -17.004   1.551  26.719  0.00  0.00    +0.000 C 
ATOM      3  C   VAL A   1     -17.048   0.852  25.369  0.00  0.00    +0.000 C 
ATOM      4  O   VAL A   1     -16.089   0.944  24.605  0.00  0.00    +0.000 OA
ATOM      5  CB  VAL A   1     -16.139   0.778  27.750  0.00  0.00    +0.000 C 
ATOM      6  CG2 VAL A   1     -15.802   1.642  28.952  0.00  0.00    +0.000 C 
ATOM      7  CG1 VAL A   1     -16.764  -0.551  28.159  0.00  0.00    +0.000 C 
ATOM      8  N   GLY A   2     -18.182   0.226  25.072  0.00  0.00    +0.000 N 
ATOM      9  CA  GLY A   2     -18.398  -0.476  23.817  0.00  0.00    +0.000 C 
ATOM     10  C   GLY A   2     -19.737  -1.169  23.725  0.00  0.00    +0.000 C 
ATOM     11  O   GLY A   2     -20.712  -0.770  24.373  0.00  0.00    +0.000 OA
ATOM     12  N   ASN A   3     -19.785  -2.211  22.904  0.00  0.00    +0.000 N 
ATOM     13  CA  ASN A   3     -20.989  -2.996  22.662  0.00  0.00    +0.000 C 
ATOM     14  C   ASN A   3     -20.618  -4.464  22.563  0.00  0.00    +0.000 C 
ATOM     15  O   ASN A   3     -19.505  -4.786  22.141  0.00  0.00    +0.000 OA
ATOM     16  CB  ASN A   3     -21.632  -2.552  21.323  0.00  0.00    +0.000 C 
ATOM     17  CG  ASN A   3     -22.592  -1.386  21.412  0.00  0.00    +0.000 C 
ATOM     18  OD1 ASN A   3     -22.242  -0.278  21.835  0.00  0.00    +0.000 OA
ATOM     19  ND2 ASN A   3     -23.817  -1.590  20.946  0.00  0.00    +0.000 N 
ATOM     20  N   GLY A   4     -21.557  -5.333  22.925  0.00  0.00    +0.000 N 
ATOM     21  CA  GLY A   4     -21.440  -6.776  22.740  0.00  0.00    +0.000 C 
ATOM     22  C   GLY A   4     -22.194  -7.125  21.467  0.00  0.00    +0.000 C 
ATOM     23  O   GLY A   4     -22.321  -6.276  20.574  0.00  0.00    +0.000 OA
ATOM     24  N   THR A   5     -22.731  -8.357  21.363  0.00  0.00    +0.000 N 
ATOM     25  CA  THR A   5     -23.565  -8.714  20.206  0.00  0.00    +0.000 C 
ATOM     26  C   THR A   5     -24.954  -8.117  20.485  0.00  0.00    +0.000 C 
ATOM     27  O   THR A   5     -25.623  -7.613  19.577  0.00  0.00    +0.000 OA
ATOM     28  CB  THR A   5     -23.494 -10.214  19.887  0.00  0.00    +0.000 C 
ATOM     29  OG1 THR A   5     -22.133 -10.551  19.582  0.00  0.00    +0.000 OA
ATOM     30  CG2 THR A   5     -24.391 -10.612  18.710  0.00  0.00    +0.000 C 
ATOM     31  H   VAL A   1     -18.841   2.403  26.433  0.00  0.00    +0.000 HD
ATOM     32  H   VAL A   1     -18.288   2.493  28.002  0.00  0.00    +0.000 HD
ATOM     33  H   VAL A   1     -18.865   1.050  27.404  0.00  0.00    +0.000 HD
ATOM     34  H   GLY A   2     -18.911   0.238  25.734  0.00  0.00    +0.000 HD
ATOM     35  H   ASN A   3     -18.960  -2.468  22.432  0.00  0.00    +0.000 HD
ATOM     36  H   ASN A   3     -24.075  -2.480  20.614  0.00  0.00    +0.000 HD
ATOM     37  H   ASN A   3     -24.468  -0.851  20.932  0.00  0.00    +0.000 HD
ATOM     38  H   GLY A   4     -22.378  -4.983  23.341  0.00  0.00    +0.000 HD
ATOM     39  H   THR A   5     -22.563  -9.024  22.068  0.00  0.00    +0.000 HD
ATOM     40  H   THR A   5     -21.843 -10.052  18.803  0.00  0.00    +0.000 HD
TER 
REMARK  Name = /data/user_data/xianyang/t3-aimnet-affinity-balanced/L2/O95819/pocket.pdb
REMARK                            x       y       z     vdW  Elec       q    Type
REMARK                         _______ _______ _______ _____ _____    ______ ____
ATOM      1  N   VAL B   1     -21.798  -2.243  26.855  0.00  0.00    +0.000 N 
ATOM      2  CA  VAL B   1     -20.846  -2.475  27.934  0.00  0.00    +0.000 C 
ATOM      3  C   VAL B   1     -20.410  -1.108  28.478  0.00  0.00    +0.000 C 
ATOM      4  O   VAL B   1     -20.069  -0.204  27.710  0.00  0.00    +0.000 OA
ATOM      5  CB  VAL B   1     -19.687  -3.457  27.591  0.00  0.00    +0.000 C 
ATOM      6  CG2 VAL B   1     -18.764  -3.673  28.790  0.00  0.00    +0.000 C 
ATOM      7  CG1 VAL B   1     -20.243  -4.800  27.112  0.00  0.00    +0.000 C 
ATOM      8  H   VAL B   1     -22.105  -3.138  26.474  0.00  0.00    +0.000 HD
ATOM      9  H   VAL B   1     -21.351  -1.696  26.119  0.00  0.00    +0.000 HD
ATOM     10  H   VAL B   1     -22.604  -1.733  27.216  0.00  0.00    +0.000 HD
TER 
REMARK  Name = /data/user_data/xianyang/t3-aimnet-affinity-balanced/L2/O95819/pocket.pdb
REMARK                            x       y       z     vdW  Elec       q    Type
REMARK                         _______ _______ _______ _____ _____    ______ ____
ATOM      1  N   ALA C   1     -15.234  -1.497  37.334  0.00  0.00    +0.000 N 
ATOM      2  CA  ALA C   1     -15.733  -2.801  36.909  0.00  0.00    +0.000 C 
ATOM      3  C   ALA C   1     -16.378  -2.575  35.551  0.00  0.00    +0.000 C 
ATOM      4  O   ALA C   1     -16.800  -1.460  35.273  0.00  0.00    +0.000 OA
ATOM      5  CB  ALA C   1     -16.775  -3.313  37.895  0.00  0.00    +0.000 C 
ATOM      6  N   ALA C   2     -16.429  -3.597  34.692  0.00  0.00    +0.000 N 
ATOM      7  CA  ALA C   2     -17.097  -3.438  33.412  0.00  0.00    +0.000 C 
ATOM      8  C   ALA C   2     -18.435  -4.097  33.552  0.00  0.00    +0.000 C 
ATOM      9  O   ALA C   2     -18.560  -5.142  34.210  0.00  0.00    +0.000 OA
ATOM     10  CB  ALA C   2     -16.304  -4.070  32.306  0.00  0.00    +0.000 C 
ATOM     11  H   ALA C   1     -14.538  -1.165  36.666  0.00  0.00    +0.000 HD
ATOM     12  H   ALA C   1     -14.808  -1.580  38.257  0.00  0.00    +0.000 HD
ATOM     13  H   ALA C   1     -16.008  -0.834  37.376  0.00  0.00    +0.000 HD
ATOM     14  H   ALA C   2     -16.014  -4.458  34.927  0.00  0.00    +0.000 HD
TER 
REMARK  Name = /data/user_data/xianyang/t3-aimnet-affinity-balanced/L2/O95819/pocket.pdb
REMARK                            x       y       z     vdW  Elec       q    Type
REMARK                         _______ _______ _______ _____ _____    ______ ____
ATOM      1  N   LYS D   1     -21.960  -5.302  31.584  0.00  0.00    +0.000 N 
ATOM      2  CA  LYS D   1     -22.702  -5.628  30.375  0.00  0.00    +0.000 C 
ATOM      3  C   LYS D   1     -24.160  -5.470  30.739  0.00  0.00    +0.000 C 
ATOM      4  O   LYS D   1     -24.651  -6.178  31.617  0.00  0.00    +0.000 OA
ATOM      5  CB  LYS D   1     -22.379  -7.050  29.879  0.00  0.00    +0.000 C 
ATOM      6  CG  LYS D   1     -22.866  -7.318  28.462  0.00  0.00    +0.000 C 
ATOM      7  CD  LYS D   1     -22.502  -8.713  28.008  0.00  0.00    +0.000 C 
ATOM      8  CE  LYS D   1     -22.853  -8.928  26.560  0.00  0.00    +0.000 C 
ATOM      9  NZ  LYS D   1     -22.565 -10.317  26.130  0.00  0.00    +0.000 N 
ATOM     10  H   LYS D   1     -20.960  -5.390  31.403  0.00  0.00    +0.000 HD
ATOM     11  H   LYS D   1     -22.228  -5.943  32.331  0.00  0.00    +0.000 HD
ATOM     12  H   LYS D   1     -22.172  -4.345  31.865  0.00  0.00    +0.000 HD
ATOM     13  H   LYS D   1     -23.124 -10.967  26.683  0.00  0.00    +0.000 HD
ATOM     14  H   LYS D   1     -21.575 -10.517  26.269  0.00  0.00    +0.000 HD
ATOM     15  H   LYS D   1     -22.798 -10.423  25.143  0.00  0.00    +0.000 HD
TER 
REMARK  Name = /data/user_data/xianyang/t3-aimnet-affinity-balanced/L2/O95819/pocket.pdb
REMARK                            x       y       z     vdW  Elec       q    Type
REMARK                         _______ _______ _______ _____ _____    ______ ____
ATOM      1  N   LEU E   1     -20.542 -18.487  34.004  0.00  0.00    +0.000 N 
ATOM      2  CA  LEU E   1     -19.617 -17.343  34.104  0.00  0.00    +0.000 C 
ATOM      3  C   LEU E   1     -18.760 -17.390  35.364  0.00  0.00    +0.000 C 
ATOM      4  O   LEU E   1     -17.569 -17.088  35.304  0.00  0.00    +0.000 OA
ATOM      5  CB  LEU E   1     -20.358 -15.999  34.070  0.00  0.00    +0.000 C 
ATOM      6  CG  LEU E   1     -20.856 -15.483  32.723  0.00  0.00    +0.000 C 
ATOM      7  CD2 LEU E   1     -21.571 -14.158  32.904  0.00  0.00    +0.000 C 
ATOM      8  CD1 LEU E   1     -19.722 -15.342  31.703  0.00  0.00    +0.000 C 
ATOM      9  H   LEU E   1     -21.089 -18.408  33.147  0.00  0.00    +0.000 HD
ATOM     10  H   LEU E   1     -21.169 -18.489  34.809  0.00  0.00    +0.000 HD
ATOM     11  H   LEU E   1     -20.008 -19.356  33.987  0.00  0.00    +0.000 HD
TER 
REMARK  Name = /data/user_data/xianyang/t3-aimnet-affinity-balanced/L2/O95819/pocket.pdb
REMARK                            x       y       z     vdW  Elec       q    Type
REMARK                         _______ _______ _______ _____ _____    ______ ____
ATOM      1  N   SER F   1     -14.377 -18.350  34.961  0.00  0.00    +0.000 N 
ATOM      2  CA  SER F   1     -13.688 -17.069  34.839  0.00  0.00    +0.000 C 
ATOM      3  C   SER F   1     -12.428 -16.975  35.701  0.00  0.00    +0.000 C 
ATOM      4  O   SER F   1     -11.678 -15.999  35.573  0.00  0.00    +0.000 OA
ATOM      5  CB  SER F   1     -14.636 -15.914  35.134  0.00  0.00    +0.000 C 
ATOM      6  OG  SER F   1     -15.296 -16.088  36.377  0.00  0.00    +0.000 OA
ATOM      7  H   SER F   1     -15.205 -18.349  34.365  0.00  0.00    +0.000 HD
ATOM      8  H   SER F   1     -14.657 -18.494  35.931  0.00  0.00    +0.000 HD
ATOM      9  H   SER F   1     -13.751 -19.102  34.673  0.00  0.00    +0.000 HD
ATOM     10  H   SER F   1     -15.823 -16.902  36.352  0.00  0.00    +0.000 HD
TER 
REMARK  Name = /data/user_data/xianyang/t3-aimnet-affinity-balanced/L2/O95819/pocket.pdb
REMARK                            x       y       z     vdW  Elec       q    Type
REMARK                         _______ _______ _______ _____ _____    ______ ____
ATOM      1  N   ILE G   1      -8.704 -14.736  31.603  0.00  0.00    +0.000 N 
ATOM      2  CA  ILE G   1     -10.142 -14.563  31.450  0.00  0.00    +0.000 C 
ATOM      3  C   ILE G   1     -10.577 -13.488  32.436  0.00  0.00    +0.000 C 
ATOM      4  O   ILE G   1     -10.242 -13.583  33.613  0.00  0.00    +0.000 OA
ATOM      5  CB  ILE G   1     -10.939 -15.900  31.579  0.00  0.00    +0.000 C 
ATOM      6  CG1 ILE G   1     -10.549 -16.900  30.438  0.00  0.00    +0.000 C 
ATOM      7  CG2 ILE G   1     -12.447 -15.625  31.539  0.00  0.00    +0.000 C 
ATOM      8  CD1 ILE G   1     -10.561 -18.331  30.786  0.00  0.00    +0.000 C 
ATOM      9  N   ALA G   2     -11.265 -12.440  31.962  0.00  0.00    +0.000 N 
ATOM     10  CA  ALA G   2     -11.774 -11.369  32.817  0.00  0.00    +0.000 C 
ATOM     11  C   ALA G   2     -12.598 -11.988  33.960  0.00  0.00    +0.000 C 
ATOM     12  O   ALA G   2     -13.388 -12.904  33.714  0.00  0.00    +0.000 OA
ATOM     13  CB  ALA G   2     -12.613 -10.403  32.002  0.00  0.00    +0.000 C 
ATOM     14  N   THR G   3     -12.324 -11.560  35.220  0.00  0.00    +0.000 N 
ATOM     15  CA  THR G   3     -12.936 -12.118  36.442  0.00  0.00    +0.000 C 
ATOM     16  C   THR G   3     -14.392 -11.737  36.597  0.00  0.00    +0.000 C 
ATOM     17  O   THR G   3     -14.730 -10.567  36.437  0.00  0.00    +0.000 OA
ATOM     18  CB  THR G   3     -12.098 -11.733  37.675  0.00  0.00    +0.000 C 
ATOM     19  OG1 THR G   3     -10.767 -12.186  37.468  0.00  0.00    +0.000 OA
ATOM     20  CG2 THR G   3     -12.618 -12.340  38.968  0.00  0.00    +0.000 C 
ATOM     21  N   TYR G   4     -15.246 -12.722  36.936  0.00  0.00    +0.000 N 
ATOM     22  CA  TYR G   4     -16.670 -12.491  37.197  0.00  0.00    +0.000 C 
ATOM     23  C   TYR G   4     -16.815 -11.896  38.610  0.00  0.00    +0.000 C 
ATOM     24  O   TYR G   4     -16.231 -12.431  39.558  0.00  0.00    +0.000 OA
ATOM     25  CB  TYR G   4     -17.467 -13.809  37.119  0.00  0.00    +0.000 C 
ATOM     26  CG  TYR G   4     -18.919 -13.674  37.516  0.00  0.00    +0.000 A 
ATOM     27  CD2 TYR G   4     -19.368 -14.123  38.756  0.00  0.00    +0.000 A 
ATOM     28  CD1 TYR G   4     -19.842 -13.069  36.666  0.00  0.00    +0.000 A 
ATOM     29  CE2 TYR G   4     -20.711 -14.007  39.125  0.00  0.00    +0.000 A 
ATOM     30  CE1 TYR G   4     -21.186 -12.948  37.022  0.00  0.00    +0.000 A 
ATOM     31  CZ  TYR G   4     -21.617 -13.423  38.250  0.00  0.00    +0.000 A 
ATOM     32  OH  TYR G   4     -22.937 -13.285  38.601  0.00  0.00    +0.000 OA
ATOM     33  N   TYR G   5     -17.588 -10.809  38.742  0.00  0.00    +0.000 N 
ATOM     34  CA  TYR G   5     -17.825 -10.172  40.035  0.00  0.00    +0.000 C 
ATOM     35  C   TYR G   5     -19.216 -10.566  40.561  0.00  0.00    +0.000 C 
ATOM     36  O   TYR G   5     -19.305 -11.258  41.578  0.00  0.00    +0.000 OA
ATOM     37  CB  TYR G   5     -17.654  -8.642  39.940  0.00  0.00    +0.000 C 
ATOM     38  CG  TYR G   5     -16.239  -8.128  39.737  0.00  0.00    +0.000 A 
ATOM     39  CD1 TYR G   5     -16.000  -6.789  39.453  0.00  0.00    +0.000 A 
ATOM     40  CD2 TYR G   5     -15.135  -8.972  39.882  0.00  0.00    +0.000 A 
ATOM     41  CE1 TYR G   5     -14.704  -6.298  39.306  0.00  0.00    +0.000 A 
ATOM     42  CE2 TYR G   5     -13.829  -8.486  39.761  0.00  0.00    +0.000 A 
ATOM     43  CZ  TYR G   5     -13.619  -7.148  39.468  0.00  0.00    +0.000 A 
ATOM     44  OH  TYR G   5     -12.345  -6.645  39.322  0.00  0.00    +0.000 OA
ATOM     45  H   ILE G   1      -8.377 -15.452  30.955  0.00  0.00    +0.000 HD
ATOM     46  H   ILE G   1      -8.496 -15.023  32.560  0.00  0.00    +0.000 HD
ATOM     47  H   ILE G   1      -8.232 -13.854  31.402  0.00  0.00    +0.000 HD
ATOM     48  H   ALA G   2     -11.435 -12.389  30.994  0.00  0.00    +0.000 HD
ATOM     49  H   THR G   3     -11.674 -10.829  35.325  0.00  0.00    +0.000 HD
ATOM     50  H   THR G   3     -10.764 -13.152  37.378  0.00  0.00    +0.000 HD
ATOM     51  H   TYR G   4     -14.898 -13.640  37.012  0.00  0.00    +0.000 HD
ATOM     52  H   TYR G   4     -23.542 -12.890  38.004  0.00  0.00    +0.000 HD
ATOM     53  H   TYR G   5     -18.011 -10.427  37.939  0.00  0.00    +0.000 HD
ATOM     54  H   TYR G   5     -12.219  -5.738  39.124  0.00  0.00    +0.000 HD
TER 
REMARK  Name = /data/user_data/xianyang/t3-aimnet-affinity-balanced/L2/O95819/pocket.pdb
REMARK                            x       y       z     vdW  Elec       q    Type
REMARK                         _______ _______ _______ _____ _____    ______ ____
ATOM      1  N   LEU H   1     -24.264  -7.589  34.200  0.00  0.00    +0.000 N 
ATOM      2  CA  LEU H   1     -23.241  -8.606  34.408  0.00  0.00    +0.000 C 
ATOM      3  C   LEU H   1     -21.947  -7.887  34.687  0.00  0.00    +0.000 C 
ATOM      4  O   LEU H   1     -21.424  -7.170  33.832  0.00  0.00    +0.000 OA
ATOM      5  CB  LEU H   1     -23.137  -9.565  33.217  0.00  0.00    +0.000 C 
ATOM      6  CG  LEU H   1     -24.327 -10.508  33.003  0.00  0.00    +0.000 C 
ATOM      7  CD1 LEU H   1     -24.179 -11.225  31.694  0.00  0.00    +0.000 C 
ATOM      8  CD2 LEU H   1     -24.448 -11.544  34.118  0.00  0.00    +0.000 C 
ATOM      9  N   VAL H   2     -21.489  -8.002  35.938  0.00  0.00    +0.000 N 
ATOM     10  CA  VAL H   2     -20.329  -7.276  36.429  0.00  0.00    +0.000 C 
ATOM     11  C   VAL H   2     -19.101  -8.127  36.408  0.00  0.00    +0.000 C 
ATOM     12  O   VAL H   2     -19.058  -9.210  36.988  0.00  0.00    +0.000 OA
ATOM     13  CB  VAL H   2     -20.580  -6.621  37.809  0.00  0.00    +0.000 C 
ATOM     14  CG2 VAL H   2     -19.478  -5.623  38.142  0.00  0.00    +0.000 C 
ATOM     15  CG1 VAL H   2     -21.947  -5.933  37.838  0.00  0.00    +0.000 C 
ATOM     16  N   MET H   3     -18.086  -7.604  35.764  0.00  0.00    +0.000 N 
ATOM     17  CA  MET H   3     -16.810  -8.271  35.616  0.00  0.00    +0.000 C 
ATOM     18  C   MET H   3     -15.685  -7.275  35.865  0.00  0.00    +0.000 C 
ATOM     19  O   MET H   3     -15.907  -6.062  35.991  0.00  0.00    +0.000 OA
ATOM     20  CB  MET H   3     -16.689  -8.861  34.187  0.00  0.00    +0.000 C 
ATOM     21  CG  MET H   3     -16.445  -7.793  33.130  0.00  0.00    +0.000 C 
ATOM     22  SD  MET H   3     -16.910  -8.231  31.457  0.00  0.00    +0.000 S 
ATOM     23  CE  MET H   3     -18.340  -7.155  31.255  0.00  0.00    +0.000 C 
ATOM     24  N   GLU H   4     -14.469  -7.806  35.851  0.00  0.00    +0.000 N 
ATOM     25  CA  GLU H   4     -13.222  -7.077  35.965  0.00  0.00    +0.000 C 
ATOM     26  C   GLU H   4     -13.104  -6.039  34.846  0.00  0.00    +0.000 C 
ATOM     27  O   GLU H   4     -13.473  -6.329  33.711  0.00  0.00    +0.000 OA
ATOM     28  CB  GLU H   4     -12.091  -8.092  35.832  0.00  0.00    +0.000 C 
ATOM     29  CG  GLU H   4     -10.738  -7.581  36.247  0.00  0.00    +0.000 C 
ATOM     30  CD  GLU H   4      -9.607  -8.507  35.842  0.00  0.00    +0.000 C 
ATOM     31  OE1 GLU H   4      -9.850  -9.719  35.615  0.00  0.00    +0.000 OA
ATOM     32  OE2 GLU H   4      -8.482  -7.992  35.654  0.00  0.00    +0.000 OA
ATOM     33  N   PHE H   5     -12.595  -4.842  35.168  0.00  0.00    +0.000 N 
ATOM     34  CA  PHE H   5     -12.389  -3.786  34.193  0.00  0.00    +0.000 C 
ATOM     35  C   PHE H   5     -11.001  -3.906  33.626  0.00  0.00    +0.000 C 
ATOM     36  O   PHE H   5     -10.031  -4.047  34.372  0.00  0.00    +0.000 OA
ATOM     37  CB  PHE H   5     -12.590  -2.395  34.808  0.00  0.00    +0.000 C 
ATOM     38  CG  PHE H   5     -12.667  -1.284  33.781  0.00  0.00    +0.000 A 
ATOM     39  CD1 PHE H   5     -13.765  -1.169  32.938  0.00  0.00    +0.000 A 
ATOM     40  CD2 PHE H   5     -11.638  -0.357  33.659  0.00  0.00    +0.000 A 
ATOM     41  CE1 PHE H   5     -13.833  -0.153  31.989  0.00  0.00    +0.000 A 
ATOM     42  CE2 PHE H   5     -11.717   0.679  32.716  0.00  0.00    +0.000 A 
ATOM     43  CZ  PHE H   5     -12.803   0.760  31.874  0.00  0.00    +0.000 A 
ATOM     44  N   CYS H   6     -10.906  -3.873  32.300  0.00  0.00    +0.000 N 
ATOM     45  CA  CYS H   6      -9.624  -3.943  31.605  0.00  0.00    +0.000 C 
ATOM     46  C   CYS H   6      -9.466  -2.604  30.923  0.00  0.00    +0.000 C 
ATOM     47  O   CYS H   6      -9.905  -2.419  29.791  0.00  0.00    +0.000 OA
ATOM     48  CB  CYS H   6      -9.581  -5.113  30.621  0.00  0.00    +0.000 C 
ATOM     49  SG  CYS H   6     -10.054  -6.708  31.343  0.00  0.00    +0.000 S 
ATOM     50  N   GLY H   7      -8.929  -1.662  31.691  0.00  0.00    +0.000 N 
ATOM     51  CA  GLY H   7      -8.716  -0.260  31.333  0.00  0.00    +0.000 C 
ATOM     52  C   GLY H   7      -8.049   0.103  30.018  0.00  0.00    +0.000 C 
ATOM     53  O   GLY H   7      -8.374   1.141  29.441  0.00  0.00    +0.000 OA
ATOM     54  N   ALA H   8      -7.088  -0.702  29.545  0.00  0.00    +0.000 N 
ATOM     55  CA  ALA H   8      -6.389  -0.394  28.293  0.00  0.00    +0.000 C 
ATOM     56  C   ALA H   8      -7.157  -0.787  27.009  0.00  0.00    +0.000 C 
ATOM     57  O   ALA H   8      -6.655  -0.560  25.913  0.00  0.00    +0.000 OA
ATOM     58  CB  ALA H   8      -4.992  -0.995  28.299  0.00  0.00    +0.000 C 
ATOM     59  N   GLY H   9      -8.379  -1.299  27.159  0.00  0.00    +0.000 N 
ATOM     60  CA  GLY H   9      -9.255  -1.655  26.047  0.00  0.00    +0.000 C 
ATOM     61  C   GLY H   9      -8.874  -2.878  25.231  0.00  0.00    +0.000 C 
ATOM     62  O   GLY H   9      -8.035  -3.690  25.639  0.00  0.00    +0.000 OA
ATOM     63  N   SER H  10      -9.498  -3.003  24.055  0.00  0.00    +0.000 N 
ATOM     64  CA  SER H  10      -9.326  -4.154  23.165  0.00  0.00    +0.000 C 
ATOM     65  CB  SER H  10      -8.046  -4.143  22.334  0.00  0.00    +0.000 C 
ATOM     66  OG  SER H  10      -7.441  -3.096  22.108  0.00  0.00    +0.000 OA
ATOM     67  C   SER H  10     -10.545  -4.311  22.258  0.00  0.00    +0.000 C 
ATOM     68  O   SER H  10     -10.557  -3.318  21.245  0.00  0.00    +0.000 OA
ATOM     69  H   LEU H   1     -25.158  -8.041  34.008  0.00  0.00    +0.000 HD
ATOM     70  H   LEU H   1     -24.003  -7.001  33.409  0.00  0.00    +0.000 HD
ATOM     71  H   LEU H   1     -24.347  -7.014  35.038  0.00  0.00    +0.000 HD
ATOM     72  H   VAL H   2     -21.960  -8.607  36.556  0.00  0.00    +0.000 HD
ATOM     73  H   MET H   3     -18.197  -6.713  35.361  0.00  0.00    +0.000 HD
ATOM     74  H   GLU H   4     -14.409  -8.784  35.754  0.00  0.00    +0.000 HD
ATOM     75  H   PHE H   5     -12.350  -4.671  36.106  0.00  0.00    +0.000 HD
ATOM     76  H   CYS H   6     -11.731  -3.799  31.767  0.00  0.00    +0.000 HD
ATOM     77  H   CYS H   6     -11.344  -6.648  31.770  0.00  0.00    +0.000 HD
ATOM     78  H   GLY H   7      -8.646  -1.936  32.593  0.00  0.00    +0.000 HD
ATOM     79  H   ALA H   8      -6.847  -1.514  30.046  0.00  0.00    +0.000 HD
ATOM     80  H   GLY H   9      -8.710  -1.446  28.074  0.00  0.00    +0.000 HD
ATOM     81  H   SER H  10     -10.106  -2.282  23.772  0.00  0.00    +0.000 HD
ATOM     82  H   SER H  10      -9.761  -3.405  20.698  0.00  0.00    +0.000 HD
TER 
REMARK  Name = /data/user_data/xianyang/t3-aimnet-affinity-balanced/L2/O95819/pocket.pdb
REMARK                            x       y       z     vdW  Elec       q    Type
REMARK                         _______ _______ _______ _____ _____    ______ ____
ATOM      1  N   ASP I   1      -8.505  -1.889  19.237  0.00  0.00    +0.000 N 
ATOM      2  CA  ASP I   1      -8.160  -0.502  19.538  0.00  0.00    +0.000 C 
ATOM      3  C   ASP I   1      -6.646  -0.329  19.479  0.00  0.00    +0.000 C 
ATOM      4  O   ASP I   1      -6.170   0.608  18.838  0.00  0.00    +0.000 OA
ATOM      5  CB  ASP I   1      -8.695  -0.094  20.927  0.00  0.00    +0.000 C 
ATOM      6  CG  ASP I   1     -10.205  -0.135  21.102  0.00  0.00    +0.000 C 
ATOM      7  OD1 ASP I   1     -10.934   0.153  20.112  0.00  0.00    +0.000 OA
ATOM      8  OD2 ASP I   1     -10.662  -0.428  22.237  0.00  0.00    +0.000 OA
ATOM      9  H   ASP I   1      -8.143  -2.137  18.316  0.00  0.00    +0.000 HD
ATOM     10  H   ASP I   1      -9.519  -1.996  19.243  0.00  0.00    +0.000 HD
ATOM     11  H   ASP I   1      -8.094  -2.502  19.941  0.00  0.00    +0.000 HD
TER 
REMARK  Name = /data/user_data/xianyang/t3-aimnet-affinity-balanced/L2/O95819/pocket.pdb
REMARK                            x       y       z     vdW  Elec       q    Type
REMARK                         _______ _______ _______ _____ _____    ______ ____
ATOM      1  N   GLN J   1     -11.790  -7.520  19.403  0.00  0.00    +0.000 N 
ATOM      2  CA  GLN J   1     -12.726  -6.821  20.270  0.00  0.00    +0.000 C 
ATOM      3  C   GLN J   1     -12.967  -7.566  21.577  0.00  0.00    +0.000 C 
ATOM      4  O   GLN J   1     -13.243  -6.939  22.593  0.00  0.00    +0.000 OA
ATOM      5  CB  GLN J   1     -14.054  -6.561  19.539  0.00  0.00    +0.000 C 
ATOM      6  CG  GLN J   1     -14.063  -5.221  18.796  0.00  0.00    +0.000 C 
ATOM      7  CD  GLN J   1     -13.933  -4.022  19.724  0.00  0.00    +0.000 C 
ATOM      8  OE1 GLN J   1     -14.659  -3.883  20.721  0.00  0.00    +0.000 OA
ATOM      9  NE2 GLN J   1     -13.007  -3.124  19.415  0.00  0.00    +0.000 N 
ATOM     10  N   ASN J   2     -12.837  -8.888  21.567  0.00  0.00    +0.000 N 
ATOM     11  CA  ASN J   2     -13.060  -9.675  22.776  0.00  0.00    +0.000 C 
ATOM     12  C   ASN J   2     -11.744 -10.052  23.485  0.00  0.00    +0.000 C 
ATOM     13  O   ASN J   2     -11.757 -10.838  24.433  0.00  0.00    +0.000 OA
ATOM     14  CB  ASN J   2     -13.961 -10.903  22.487  0.00  0.00    +0.000 C 
ATOM     15  CG  ASN J   2     -15.422 -10.553  22.272  0.00  0.00    +0.000 C 
ATOM     16  OD1 ASN J   2     -15.901  -9.517  22.728  0.00  0.00    +0.000 OA
ATOM     17  ND2 ASN J   2     -16.175 -11.404  21.590  0.00  0.00    +0.000 N 
ATOM     18  H   GLN J   1     -11.660  -6.987  18.543  0.00  0.00    +0.000 HD
ATOM     19  H   GLN J   1     -12.160  -8.443  19.178  0.00  0.00    +0.000 HD
ATOM     20  H   GLN J   1     -10.894  -7.620  19.880  0.00  0.00    +0.000 HD
ATOM     21  H   GLN J   1     -12.442  -3.254  18.619  0.00  0.00    +0.000 HD
ATOM     22  H   GLN J   1     -12.885  -2.328  19.981  0.00  0.00    +0.000 HD
ATOM     23  H   ASN J   2     -12.586  -9.344  20.731  0.00  0.00    +0.000 HD
ATOM     24  H   ASN J   2     -15.780 -12.231  21.229  0.00  0.00    +0.000 HD
ATOM     25  H   ASN J   2     -17.129 -11.209  21.444  0.00  0.00    +0.000 HD
TER 
REMARK  Name = /data/user_data/xianyang/t3-aimnet-affinity-balanced/L2/O95819/pocket.pdb
REMARK                            x       y       z     vdW  Elec       q    Type
REMARK                         _______ _______ _______ _____ _____    ______ ____
ATOM      1  N   LEU K   1      -8.857  -8.273  25.619  0.00  0.00    +0.000 N 
ATOM      2  CA  LEU K   1      -8.604  -7.004  26.320  0.00  0.00    +0.000 C 
ATOM      3  C   LEU K   1      -7.283  -6.898  27.059  0.00  0.00    +0.000 C 
ATOM      4  O   LEU K   1      -6.717  -7.901  27.496  0.00  0.00    +0.000 OA
ATOM      5  CB  LEU K   1      -9.754  -6.688  27.295  0.00  0.00    +0.000 C 
ATOM      6  CG  LEU K   1     -11.193  -6.833  26.781  0.00  0.00    +0.000 C 
ATOM      7  CD2 LEU K   1     -12.167  -6.582  27.873  0.00  0.00    +0.000 C 
ATOM      8  CD1 LEU K   1     -11.481  -5.901  25.629  0.00  0.00    +0.000 C 
ATOM      9  H   LEU K   1      -8.087  -8.467  24.978  0.00  0.00    +0.000 HD
ATOM     10  H   LEU K   1      -9.728  -8.203  25.093  0.00  0.00    +0.000 HD
ATOM     11  H   LEU K   1      -8.931  -9.029  26.300  0.00  0.00    +0.000 HD
TER 
REMARK  Name = /data/user_data/xianyang/t3-aimnet-affinity-balanced/L2/O95819/pocket.pdb
REMARK                            x       y       z     vdW  Elec       q    Type
REMARK                         _______ _______ _______ _____ _____    ______ ____
ATOM      1  N   LEU L   1      -9.541 -12.477  28.111  0.00  0.00    +0.000 N 
ATOM      2  CA  LEU L   1     -10.649 -12.790  27.210  0.00  0.00    +0.000 C 
ATOM      3  C   LEU L   1     -11.980 -12.398  27.832  0.00  0.00    +0.000 C 
ATOM      4  O   LEU L   1     -12.226 -12.630  29.015  0.00  0.00    +0.000 OA
ATOM      5  CB  LEU L   1     -10.699 -14.286  26.844  0.00  0.00    +0.000 C 
ATOM      6  CG  LEU L   1      -9.484 -14.926  26.161  0.00  0.00    +0.000 C 
ATOM      7  CD2 LEU L   1      -9.749 -16.386  25.901  0.00  0.00    +0.000 C 
ATOM      8  CD1 LEU L   1      -9.116 -14.223  24.861  0.00  0.00    +0.000 C 
ATOM      9  N   VAL L   2     -12.885 -11.940  27.003  0.00  0.00    +0.000 N 
ATOM     10  CA  VAL L   2     -14.212 -11.541  27.440  0.00  0.00    +0.000 C 
ATOM     11  C   VAL L   2     -15.288 -12.160  26.528  0.00  0.00    +0.000 C 
ATOM     12  O   VAL L   2     -14.983 -12.569  25.402  0.00  0.00    +0.000 OA
ATOM     13  CB  VAL L   2     -14.205  -9.995  27.485  0.00  0.00    +0.000 C 
ATOM     14  CG1 VAL L   2     -14.817  -9.339  26.255  0.00  0.00    +0.000 C 
ATOM     15  CG2 VAL L   2     -14.767  -9.470  28.781  0.00  0.00    +0.000 C 
ATOM     16  N   ASP L   3     -16.521 -12.272  27.035  0.00  0.00    +0.000 N 
ATOM     17  CA  ASP L   3     -17.704 -12.709  26.290  0.00  0.00    +0.000 C 
ATOM     18  C   ASP L   3     -17.642 -14.159  25.736  0.00  0.00    +0.000 C 
ATOM     19  O   ASP L   3     -18.078 -14.423  24.600  0.00  0.00    +0.000 OA
ATOM     20  CB  ASP L   3     -18.025 -11.691  25.162  0.00  0.00    +0.000 C 
ATOM     21  CG  ASP L   3     -19.494 -11.520  24.812  0.00  0.00    +0.000 C 
ATOM     22  OD2 ASP L   3     -20.351 -12.082  25.536  0.00  0.00    +0.000 OA
ATOM     23  OD1 ASP L   3     -19.787 -10.815  23.823  0.00  0.00    +0.000 OA
ATOM     24  N   PHE L   4     -17.185 -15.110  26.580  0.00  0.00    +0.000 N 
ATOM     25  CA  PHE L   4     -17.203 -16.519  26.215  0.00  0.00    +0.000 C 
ATOM     26  C   PHE L   4     -18.654 -16.983  26.287  0.00  0.00    +0.000 C 
ATOM     27  O   PHE L   4     -19.421 -16.464  27.109  0.00  0.00    +0.000 OA
ATOM     28  CB  PHE L   4     -16.238 -17.382  27.064  0.00  0.00    +0.000 C 
ATOM     29  CG  PHE L   4     -16.473 -17.459  28.554  0.00  0.00    +0.000 A 
ATOM     30  CD1 PHE L   4     -17.322 -18.424  29.093  0.00  0.00    +0.000 A 
ATOM     31  CD2 PHE L   4     -15.772 -16.633  29.428  0.00  0.00    +0.000 A 
ATOM     32  CE1 PHE L   4     -17.520 -18.510  30.480  0.00  0.00    +0.000 A 
ATOM     33  CE2 PHE L   4     -15.960 -16.728  30.811  0.00  0.00    +0.000 A 
ATOM     34  CZ  PHE L   4     -16.838 -17.659  31.330  0.00  0.00    +0.000 A 
ATOM     35  H   LEU L   1      -8.660 -12.748  27.674  0.00  0.00    +0.000 HD
ATOM     36  H   LEU L   1      -9.658 -12.989  28.985  0.00  0.00    +0.000 HD
ATOM     37  H   LEU L   1      -9.531 -11.475  28.303  0.00  0.00    +0.000 HD
ATOM     38  H   VAL L   2     -12.658 -11.863  26.048  0.00  0.00    +0.000 HD
ATOM     39  H   ASP L   3     -16.643 -12.042  27.985  0.00  0.00    +0.000 HD
ATOM     40  H   PHE L   4     -16.833 -14.844  27.460  0.00  0.00    +0.000 HD
TER 
REMARK  Name = /data/user_data/xianyang/t3-aimnet-affinity-balanced/L2/O95819/pocket.pdb
REMARK                            x       y       z     vdW  Elec       q    Type
REMARK                         _______ _______ _______ _____ _____    ______ ____
ATOM      1  N   VAL M   1     -22.103 -18.744  26.921  0.00  0.00    +0.000 N 
ATOM      2  CA  VAL M   1     -22.740 -19.353  28.098  0.00  0.00    +0.000 C 
ATOM      3  C   VAL M   1     -24.206 -19.766  27.826  0.00  0.00    +0.000 C 
ATOM      4  O   VAL M   1     -24.893 -20.225  28.739  0.00  0.00    +0.000 OA
ATOM      5  CB  VAL M   1     -22.609 -18.471  29.381  0.00  0.00    +0.000 C 
ATOM      6  CG2 VAL M   1     -21.177 -18.459  29.910  0.00  0.00    +0.000 C 
ATOM      7  CG1 VAL M   1     -23.127 -17.052  29.152  0.00  0.00    +0.000 C 
ATOM      8  H   VAL M   1     -22.218 -19.359  26.116  0.00  0.00    +0.000 HD
ATOM      9  H   VAL M   1     -21.109 -18.607  27.105  0.00  0.00    +0.000 HD
ATOM     10  H   VAL M   1     -22.540 -17.843  26.726  0.00  0.00    +0.000 HD
TER 
