REMARK  Name = /data/user_data/xianyang/t3-aimnet-affinity-balanced/L2/Q14145/pocket.pdb
REMARK                            x       y       z     vdW  Elec       q    Type
REMARK                         _______ _______ _______ _____ _____    ______ ____
ATOM      1  N   GLY A   1       1.982  11.074 -18.560  0.00  0.00    +0.000 N 
ATOM      2  CA  GLY A   1       2.136  10.604 -19.923  0.00  0.00    +0.000 C 
ATOM      3  C   GLY A   1       3.601  10.442 -20.274  0.00  0.00    +0.000 C 
ATOM      4  O   GLY A   1       4.472  10.635 -19.423  0.00  0.00    +0.000 OA
ATOM      5  N   TYR A   2       3.879  10.092 -21.526  0.00  0.00    +0.000 N 
ATOM      6  CA  TYR A   2       5.252   9.854 -21.949  0.00  0.00    +0.000 C 
ATOM      7  C   TYR A   2       5.569  10.370 -23.348  0.00  0.00    +0.000 C 
ATOM      8  O   TYR A   2       4.821  10.140 -24.300  0.00  0.00    +0.000 OA
ATOM      9  CB  TYR A   2       5.591   8.365 -21.871  0.00  0.00    +0.000 C 
ATOM     10  CG  TYR A   2       6.977   8.040 -22.383  0.00  0.00    +0.000 A 
ATOM     11  CD2 TYR A   2       8.065   8.000 -21.521  0.00  0.00    +0.000 A 
ATOM     12  CD1 TYR A   2       7.200   7.787 -23.730  0.00  0.00    +0.000 A 
ATOM     13  CE2 TYR A   2       9.333   7.710 -21.984  0.00  0.00    +0.000 A 
ATOM     14  CE1 TYR A   2       8.465   7.495 -24.201  0.00  0.00    +0.000 A 
ATOM     15  CZ  TYR A   2       9.528   7.458 -23.324  0.00  0.00    +0.000 A 
ATOM     16  OH  TYR A   2      10.791   7.170 -23.789  0.00  0.00    +0.000 OA
ATOM     17  N   PHE A   3       6.691  11.073 -23.454  0.00  0.00    +0.000 N 
ATOM     18  CA  PHE A   3       7.282  11.412 -24.741  0.00  0.00    +0.000 C 
ATOM     19  C   PHE A   3       8.759  11.719 -24.545  0.00  0.00    +0.000 C 
ATOM     20  O   PHE A   3       9.117  12.759 -23.995  0.00  0.00    +0.000 OA
ATOM     21  CB  PHE A   3       6.570  12.591 -25.402  0.00  0.00    +0.000 C 
ATOM     22  CG  PHE A   3       7.079  12.898 -26.780  0.00  0.00    +0.000 A 
ATOM     23  CD1 PHE A   3       6.848  12.022 -27.827  0.00  0.00    +0.000 A 
ATOM     24  CD2 PHE A   3       7.798  14.055 -27.029  0.00  0.00    +0.000 A 
ATOM     25  CE1 PHE A   3       7.318  12.296 -29.093  0.00  0.00    +0.000 A 
ATOM     26  CE2 PHE A   3       8.271  14.335 -28.293  0.00  0.00    +0.000 A 
ATOM     27  CZ  PHE A   3       8.031  13.454 -29.327  0.00  0.00    +0.000 A 
ATOM     28  H   GLY A   1       0.990  11.176 -18.345  0.00  0.00    +0.000 HD
ATOM     29  H   GLY A   1       2.446  11.976 -18.457  0.00  0.00    +0.000 HD
ATOM     30  H   GLY A   1       2.401  10.401 -17.919  0.00  0.00    +0.000 HD
ATOM     31  H   TYR A   2       3.147   9.992 -22.176  0.00  0.00    +0.000 HD
ATOM     32  H   TYR A   2      10.927   6.998 -24.700  0.00  0.00    +0.000 HD
ATOM     33  H   PHE A   3       7.140  11.376 -22.632  0.00  0.00    +0.000 HD
TER 
REMARK  Name = /data/user_data/xianyang/t3-aimnet-affinity-balanced/L2/Q14145/pocket.pdb
REMARK                            x       y       z     vdW  Elec       q    Type
REMARK                         _______ _______ _______ _____ _____    ______ ____
ATOM      1  N   SER B   1       9.127  10.616 -18.994  0.00  0.00    +0.000 N 
ATOM      2  CA  SER B   1       7.896  10.795 -18.230  0.00  0.00    +0.000 C 
ATOM      3  CB  SER B   1       7.526  12.272 -18.143  0.00  0.00    +0.000 C 
ATOM      4  OG  SER B   1       8.386  13.123 -17.914  0.00  0.00    +0.000 OA
ATOM      5  C   SER B   1       8.039  10.195 -16.833  0.00  0.00    +0.000 C 
ATOM      6  O   SER B   1       8.258   8.797 -16.907  0.00  0.00    +0.000 OA
ATOM      7  H   SER B   1       9.013  11.022 -19.923  0.00  0.00    +0.000 HD
ATOM      8  H   SER B   1       9.331   9.620 -19.081  0.00  0.00    +0.000 HD
ATOM      9  H   SER B   1       9.897  11.080 -18.512  0.00  0.00    +0.000 HD
ATOM     10  H   SER B   1       7.503   8.374 -17.345  0.00  0.00    +0.000 HD
TER 
REMARK  Name = /data/user_data/xianyang/t3-aimnet-affinity-balanced/L2/Q14145/pocket.pdb
REMARK                            x       y       z     vdW  Elec       q    Type
REMARK                         _______ _______ _______ _____ _____    ______ ____
ATOM      1  N   SER C   1       4.861   8.339 -16.149  0.00  0.00    +0.000 N 
ATOM      2  CA  SER C   1       4.124   7.721 -17.241  0.00  0.00    +0.000 C 
ATOM      3  C   SER C   1       3.538   6.408 -16.750  0.00  0.00    +0.000 C 
ATOM      4  O   SER C   1       3.965   5.876 -15.726  0.00  0.00    +0.000 OA
ATOM      5  CB  SER C   1       5.039   7.466 -18.437  0.00  0.00    +0.000 C 
ATOM      6  OG  SER C   1       6.042   6.521 -18.111  0.00  0.00    +0.000 OA
ATOM      7  N   GLY C   2       2.561   5.886 -17.478  0.00  0.00    +0.000 N 
ATOM      8  CA  GLY C   2       1.935   4.634 -17.102  0.00  0.00    +0.000 C 
ATOM      9  C   GLY C   2       1.291   4.708 -15.732  0.00  0.00    +0.000 C 
ATOM     10  O   GLY C   2       1.216   3.707 -15.019  0.00  0.00    +0.000 OA
ATOM     11  N   LEU C   3       0.835   5.900 -15.361  0.00  0.00    +0.000 N 
ATOM     12  CA  LEU C   3       0.120   6.086 -14.103  0.00  0.00    +0.000 C 
ATOM     13  C   LEU C   3      -1.379   5.988 -14.345  0.00  0.00    +0.000 C 
ATOM     14  O   LEU C   3      -1.824   5.810 -15.478  0.00  0.00    +0.000 OA
ATOM     15  CB  LEU C   3       0.443   7.447 -13.485  0.00  0.00    +0.000 C 
ATOM     16  CG  LEU C   3      -0.146   8.658 -14.213  0.00  0.00    +0.000 C 
ATOM     17  CD2 LEU C   3      -0.181   9.880 -13.308  0.00  0.00    +0.000 C 
ATOM     18  CD1 LEU C   3       0.640   8.953 -15.481  0.00  0.00    +0.000 C 
ATOM     19  H   SER C   1       5.260   9.223 -16.465  0.00  0.00    +0.000 HD
ATOM     20  H   SER C   1       5.610   7.715 -15.849  0.00  0.00    +0.000 HD
ATOM     21  H   SER C   1       4.229   8.512 -15.367  0.00  0.00    +0.000 HD
ATOM     22  H   SER C   1       5.626   5.681 -17.862  0.00  0.00    +0.000 HD
ATOM     23  H   GLY C   2       2.256   6.356 -18.287  0.00  0.00    +0.000 HD
ATOM     24  H   LEU C   3       0.983   6.676 -15.949  0.00  0.00    +0.000 HD
TER 
REMARK  Name = /data/user_data/xianyang/t3-aimnet-affinity-balanced/L2/Q14145/pocket.pdb
REMARK                            x       y       z     vdW  Elec       q    Type
REMARK                         _______ _______ _______ _____ _____    ______ ____
ATOM      1  N   GLY D   1       2.870   4.659 -11.461  0.00  0.00    +0.000 N 
ATOM      2  CA  GLY D   1       3.457   5.051 -12.726  0.00  0.00    +0.000 C 
ATOM      3  C   GLY D   1       4.964   4.888 -12.728  0.00  0.00    +0.000 C 
ATOM      4  O   GLY D   1       5.520   4.110 -11.949  0.00  0.00    +0.000 OA
ATOM      5  N   ARG D   2       5.628   5.630 -13.608  0.00  0.00    +0.000 N 
ATOM      6  CA  ARG D   2       7.079   5.583 -13.713  0.00  0.00    +0.000 C 
ATOM      7  C   ARG D   2       7.651   6.989 -13.852  0.00  0.00    +0.000 C 
ATOM      8  O   ARG D   2       7.293   7.725 -14.769  0.00  0.00    +0.000 OA
ATOM      9  CB  ARG D   2       7.502   4.727 -14.907  0.00  0.00    +0.000 C 
ATOM     10  CG  ARG D   2       9.005   4.509 -15.011  0.00  0.00    +0.000 C 
ATOM     11  CD  ARG D   2       9.362   3.693 -16.241  0.00  0.00    +0.000 C 
ATOM     12  NE  ARG D   2       9.164   4.453 -17.471  0.00  0.00    +0.000 N 
ATOM     13  CZ  ARG D   2       9.287   3.943 -18.692  0.00  0.00    +0.000 C 
ATOM     14  NH2 ARG D   2       9.603   2.665 -18.851  0.00  0.00    +0.000 N 
ATOM     15  NH1 ARG D   2       9.089   4.711 -19.756  0.00  0.00    +0.000 N 
ATOM     16  H   GLY D   1       1.859   4.784 -11.502  0.00  0.00    +0.000 HD
ATOM     17  H   GLY D   1       3.254   5.238 -10.714  0.00  0.00    +0.000 HD
ATOM     18  H   GLY D   1       3.084   3.679 -11.276  0.00  0.00    +0.000 HD
ATOM     19  H   ARG D   2       5.124   6.228 -14.206  0.00  0.00    +0.000 HD
ATOM     20  H   ARG D   2       8.924   5.404 -17.391  0.00  0.00    +0.000 HD
ATOM     21  H   ARG D   2       9.694   2.289 -19.756  0.00  0.00    +0.000 HD
ATOM     22  H   ARG D   2       9.747   2.092 -18.064  0.00  0.00    +0.000 HD
ATOM     23  H   ARG D   2       9.180   4.332 -20.660  0.00  0.00    +0.000 HD
ATOM     24  H   ARG D   2       8.851   5.659 -19.641  0.00  0.00    +0.000 HD
TER 
REMARK  Name = /data/user_data/xianyang/t3-aimnet-affinity-balanced/L2/Q14145/pocket.pdb
REMARK                            x       y       z     vdW  Elec       q    Type
REMARK                         _______ _______ _______ _____ _____    ______ ____
ATOM      1  N   ASN E   1       4.003   0.336 -11.501  0.00  0.00    +0.000 N 
ATOM      2  CA  ASN E   1       4.031   0.917 -12.838  0.00  0.00    +0.000 C 
ATOM      3  C   ASN E   1       3.030   0.212 -13.742  0.00  0.00    +0.000 C 
ATOM      4  O   ASN E   1       2.723  -0.961 -13.535  0.00  0.00    +0.000 OA
ATOM      5  CB  ASN E   1       5.434   0.826 -13.441  0.00  0.00    +0.000 C 
ATOM      6  CG  ASN E   1       5.528   1.500 -14.798  0.00  0.00    +0.000 C 
ATOM      7  OD1 ASN E   1       4.848   2.494 -15.060  0.00  0.00    +0.000 OA
ATOM      8  ND2 ASN E   1       6.372   0.957 -15.671  0.00  0.00    +0.000 N 
ATOM      9  N   ARG E   2       2.530   0.925 -14.745  0.00  0.00    +0.000 N 
ATOM     10  CA  ARG E   2       1.516   0.370 -15.632  0.00  0.00    +0.000 C 
ATOM     11  C   ARG E   2       0.336  -0.089 -14.790  0.00  0.00    +0.000 C 
ATOM     12  O   ARG E   2      -0.120  -1.228 -14.885  0.00  0.00    +0.000 OA
ATOM     13  CB  ARG E   2       2.102  -0.772 -16.460  0.00  0.00    +0.000 C 
ATOM     14  CG  ARG E   2       3.221  -0.304 -17.383  0.00  0.00    +0.000 C 
ATOM     15  CD  ARG E   2       3.913  -1.449 -18.093  0.00  0.00    +0.000 C 
ATOM     16  NE  ARG E   2       5.013  -0.969 -18.924  0.00  0.00    +0.000 N 
ATOM     17  CZ  ARG E   2       5.873  -1.760 -19.557  0.00  0.00    +0.000 C 
ATOM     18  NH2 ARG E   2       5.767  -3.078 -19.455  0.00  0.00    +0.000 N 
ATOM     19  NH1 ARG E   2       6.843  -1.232 -20.291  0.00  0.00    +0.000 N 
ATOM     20  H   ASN E   1       3.060   0.407 -11.119  0.00  0.00    +0.000 HD
ATOM     21  H   ASN E   1       4.653   0.840 -10.898  0.00  0.00    +0.000 HD
ATOM     22  H   ASN E   1       4.276  -0.645 -11.551  0.00  0.00    +0.000 HD
ATOM     23  H   ASN E   1       6.475   1.352 -16.567  0.00  0.00    +0.000 HD
ATOM     24  H   ASN E   1       6.894   0.161 -15.421  0.00  0.00    +0.000 HD
ATOM     25  H   ARG E   2       2.850   1.844 -14.892  0.00  0.00    +0.000 HD
ATOM     26  H   ARG E   2       5.125   0.004 -19.022  0.00  0.00    +0.000 HD
ATOM     27  H   ARG E   2       6.406  -3.661 -19.925  0.00  0.00    +0.000 HD
ATOM     28  H   ARG E   2       5.049  -3.473 -18.909  0.00  0.00    +0.000 HD
ATOM     29  H   ARG E   2       7.480  -1.818 -20.760  0.00  0.00    +0.000 HD
ATOM     30  H   ARG E   2       6.926  -0.254 -20.367  0.00  0.00    +0.000 HD
TER 
REMARK  Name = /data/user_data/xianyang/t3-aimnet-affinity-balanced/L2/Q14145/pocket.pdb
REMARK                            x       y       z     vdW  Elec       q    Type
REMARK                         _______ _______ _______ _____ _____    ______ ____
ATOM      1  N   ILE F   1      -0.076  -6.545 -15.273  0.00  0.00    +0.000 N 
ATOM      2  CA  ILE F   1       0.481  -5.213 -15.477  0.00  0.00    +0.000 C 
ATOM      3  C   ILE F   1      -0.054  -4.665 -16.793  0.00  0.00    +0.000 C 
ATOM      4  O   ILE F   1      -0.207  -5.405 -17.763  0.00  0.00    +0.000 OA
ATOM      5  CB  ILE F   1       2.026  -5.204 -15.492  0.00  0.00    +0.000 C 
ATOM      6  CG1 ILE F   1       2.554  -5.234 -16.927  0.00  0.00    +0.000 C 
ATOM      7  CG2 ILE F   1       2.580  -6.351 -14.660  0.00  0.00    +0.000 C 
ATOM      8  CD1 ILE F   1       4.036  -4.981 -17.028  0.00  0.00    +0.000 C 
ATOM      9  N   GLY F   2      -0.343  -3.371 -16.823  0.00  0.00    +0.000 N 
ATOM     10  CA  GLY F   2      -0.990  -2.778 -17.978  0.00  0.00    +0.000 C 
ATOM     11  C   GLY F   2      -2.453  -3.175 -17.984  0.00  0.00    +0.000 C 
ATOM     12  O   GLY F   2      -3.098  -3.239 -19.032  0.00  0.00    +0.000 OA
ATOM     13  N   VAL F   3      -2.968  -3.449 -16.791  0.00  0.00    +0.000 N 
ATOM     14  CA  VAL F   3      -4.347  -3.875 -16.612  0.00  0.00    +0.000 C 
ATOM     15  C   VAL F   3      -5.312  -2.699 -16.736  0.00  0.00    +0.000 C 
ATOM     16  O   VAL F   3      -4.967  -1.561 -16.422  0.00  0.00    +0.000 OA
ATOM     17  CB  VAL F   3      -4.539  -4.555 -15.235  0.00  0.00    +0.000 C 
ATOM     18  CG2 VAL F   3      -4.134  -3.612 -14.114  0.00  0.00    +0.000 C 
ATOM     19  CG1 VAL F   3      -5.977  -5.016 -15.055  0.00  0.00    +0.000 C 
ATOM     20  H   ILE F   1      -1.095  -6.491 -15.272  0.00  0.00    +0.000 HD
ATOM     21  H   ILE F   1       0.246  -6.915 -14.378  0.00  0.00    +0.000 HD
ATOM     22  H   ILE F   1       0.231  -7.161 -16.026  0.00  0.00    +0.000 HD
ATOM     23  H   GLY F   2      -0.115  -2.805 -16.050  0.00  0.00    +0.000 HD
ATOM     24  H   VAL F   3      -2.394  -3.360 -15.996  0.00  0.00    +0.000 HD
TER 
REMARK  Name = /data/user_data/xianyang/t3-aimnet-affinity-balanced/L2/Q14145/pocket.pdb
REMARK                            x       y       z     vdW  Elec       q    Type
REMARK                         _______ _______ _______ _____ _____    ______ ____
ATOM      1  N   GLY G   1      -4.117  -7.505 -19.511  0.00  0.00    +0.000 N 
ATOM      2  CA  GLY G   1      -2.828  -7.218 -18.914  0.00  0.00    +0.000 C 
ATOM      3  C   GLY G   1      -1.753  -8.197 -19.338  0.00  0.00    +0.000 C 
ATOM      4  O   GLY G   1      -1.889  -8.896 -20.341  0.00  0.00    +0.000 OA
ATOM      5  N   PHE G   2      -0.680  -8.244 -18.557  0.00  0.00    +0.000 N 
ATOM      6  CA  PHE G   2       0.465  -9.090 -18.855  0.00  0.00    +0.000 C 
ATOM      7  C   PHE G   2       0.951  -9.727 -17.559  0.00  0.00    +0.000 C 
ATOM      8  O   PHE G   2       1.357  -9.027 -16.631  0.00  0.00    +0.000 OA
ATOM      9  CB  PHE G   2       1.571  -8.252 -19.500  0.00  0.00    +0.000 C 
ATOM     10  CG  PHE G   2       2.779  -9.042 -19.914  0.00  0.00    +0.000 A 
ATOM     11  CD1 PHE G   2       2.682 -10.032 -20.878  0.00  0.00    +0.000 A 
ATOM     12  CD2 PHE G   2       4.020  -8.775 -19.359  0.00  0.00    +0.000 A 
ATOM     13  CE1 PHE G   2       3.795 -10.753 -21.267  0.00  0.00    +0.000 A 
ATOM     14  CE2 PHE G   2       5.138  -9.491 -19.744  0.00  0.00    +0.000 A 
ATOM     15  CZ  PHE G   2       5.025 -10.482 -20.699  0.00  0.00    +0.000 A 
ATOM     16  H   GLY G   1      -4.800  -6.818 -19.192  0.00  0.00    +0.000 HD
ATOM     17  H   GLY G   1      -4.420  -8.439 -19.234  0.00  0.00    +0.000 HD
ATOM     18  H   GLY G   1      -4.039  -7.460 -20.527  0.00  0.00    +0.000 HD
ATOM     19  H   PHE G   2      -0.659  -7.686 -17.746  0.00  0.00    +0.000 HD
TER 
REMARK  Name = /data/user_data/xianyang/t3-aimnet-affinity-balanced/L2/Q14145/pocket.pdb
REMARK                            x       y       z     vdW  Elec       q    Type
REMARK                         _______ _______ _______ _____ _____    ______ ____
ATOM      1  N   ARG H   1       0.464 -12.262 -22.586  0.00  0.00    +0.000 N 
ATOM      2  CA  ARG H   1      -0.546 -11.218 -22.607  0.00  0.00    +0.000 C 
ATOM      3  C   ARG H   1      -1.900 -11.863 -22.330  0.00  0.00    +0.000 C 
ATOM      4  O   ARG H   1      -2.136 -13.010 -22.709  0.00  0.00    +0.000 OA
ATOM      5  CB  ARG H   1      -0.543 -10.504 -23.957  0.00  0.00    +0.000 C 
ATOM      6  CG  ARG H   1      -0.805  -9.015 -23.863  0.00  0.00    +0.000 C 
ATOM      7  CD  ARG H   1      -0.032  -8.263 -24.930  0.00  0.00    +0.000 C 
ATOM      8  NE  ARG H   1       1.403  -8.521 -24.847  0.00  0.00    +0.000 N 
ATOM      9  CZ  ARG H   1       2.235  -7.871 -24.040  0.00  0.00    +0.000 C 
ATOM     10  NH2 ARG H   1       1.777  -6.924 -23.233  0.00  0.00    +0.000 N 
ATOM     11  NH1 ARG H   1       3.525  -8.173 -24.034  0.00  0.00    +0.000 N 
ATOM     12  H   ARG H   1       1.380 -11.853 -22.769  0.00  0.00    +0.000 HD
ATOM     13  H   ARG H   1       0.252 -12.955 -23.304  0.00  0.00    +0.000 HD
ATOM     14  H   ARG H   1       0.470 -12.711 -21.670  0.00  0.00    +0.000 HD
ATOM     15  H   ARG H   1       1.779  -9.222 -25.427  0.00  0.00    +0.000 HD
ATOM     16  H   ARG H   1       0.819  -6.697 -23.235  0.00  0.00    +0.000 HD
ATOM     17  H   ARG H   1       2.395  -6.448 -22.632  0.00  0.00    +0.000 HD
ATOM     18  H   ARG H   1       3.869  -8.876 -24.632  0.00  0.00    +0.000 HD
ATOM     19  H   ARG H   1       4.140  -7.695 -23.432  0.00  0.00    +0.000 HD
TER 
REMARK  Name = /data/user_data/xianyang/t3-aimnet-affinity-balanced/L2/Q14145/pocket.pdb
REMARK                            x       y       z     vdW  Elec       q    Type
REMARK                         _______ _______ _______ _____ _____    ______ ____
ATOM      1  N   SER I   1      -3.289  -5.777 -23.425  0.00  0.00    +0.000 N 
ATOM      2  CA  SER I   1      -2.590  -5.118 -22.328  0.00  0.00    +0.000 C 
ATOM      3  C   SER I   1      -2.474  -3.638 -22.675  0.00  0.00    +0.000 C 
ATOM      4  O   SER I   1      -2.466  -3.274 -23.850  0.00  0.00    +0.000 OA
ATOM      5  CB  SER I   1      -1.208  -5.733 -22.087  0.00  0.00    +0.000 C 
ATOM      6  OG  SER I   1      -0.319  -5.452 -23.154  0.00  0.00    +0.000 OA
ATOM      7  N   GLY I   2      -2.399  -2.785 -21.662  0.00  0.00    +0.000 N 
ATOM      8  CA  GLY I   2      -2.352  -1.354 -21.898  0.00  0.00    +0.000 C 
ATOM      9  C   GLY I   2      -3.572  -0.890 -22.670  0.00  0.00    +0.000 C 
ATOM     10  O   GLY I   2      -3.477  -0.060 -23.574  0.00  0.00    +0.000 OA
ATOM     11  N   ALA I   3      -4.727  -1.438 -22.310  0.00  0.00    +0.000 N 
ATOM     12  CA  ALA I   3      -5.985  -1.063 -22.939  0.00  0.00    +0.000 C 
ATOM     13  C   ALA I   3      -6.694   0.034 -22.150  0.00  0.00    +0.000 C 
ATOM     14  O   ALA I   3      -6.321   0.342 -21.015  0.00  0.00    +0.000 OA
ATOM     15  CB  ALA I   3      -6.887  -2.279 -23.074  0.00  0.00    +0.000 C 
ATOM     16  H   SER I   1      -4.202  -5.342 -23.556  0.00  0.00    +0.000 HD
ATOM     17  H   SER I   1      -3.411  -6.766 -23.205  0.00  0.00    +0.000 HD
ATOM     18  H   SER I   1      -2.742  -5.684 -24.281  0.00  0.00    +0.000 HD
ATOM     19  H   SER I   1      -0.203  -4.492 -23.234  0.00  0.00    +0.000 HD
ATOM     20  H   GLY I   2      -2.375  -3.127 -20.739  0.00  0.00    +0.000 HD
ATOM     21  H   ALA I   3      -4.732  -2.117 -21.597  0.00  0.00    +0.000 HD
TER 
REMARK  Name = /data/user_data/xianyang/t3-aimnet-affinity-balanced/L2/Q14145/pocket.pdb
REMARK                            x       y       z     vdW  Elec       q    Type
REMARK                         _______ _______ _______ _____ _____    ______ ____
ATOM      1  N   GLY J   1      -5.380  -1.197 -26.988  0.00  0.00    +0.000 N 
ATOM      2  CA  GLY J   1      -4.447  -2.031 -26.262  0.00  0.00    +0.000 C 
ATOM      3  C   GLY J   1      -3.434  -2.677 -27.183  0.00  0.00    +0.000 C 
ATOM      4  O   GLY J   1      -3.262  -2.267 -28.334  0.00  0.00    +0.000 OA
ATOM      5  N   TYR J   2      -2.767  -3.701 -26.668  0.00  0.00    +0.000 N 
ATOM      6  CA  TYR J   2      -1.714  -4.388 -27.397  0.00  0.00    +0.000 C 
ATOM      7  C   TYR J   2      -1.914  -5.888 -27.246  0.00  0.00    +0.000 C 
ATOM      8  O   TYR J   2      -1.915  -6.411 -26.132  0.00  0.00    +0.000 OA
ATOM      9  CB  TYR J   2      -0.356  -3.967 -26.841  0.00  0.00    +0.000 C 
ATOM     10  CG  TYR J   2       0.833  -4.623 -27.497  0.00  0.00    +0.000 A 
ATOM     11  CD1 TYR J   2       1.262  -4.224 -28.754  0.00  0.00    +0.000 A 
ATOM     12  CD2 TYR J   2       1.544  -5.622 -26.846  0.00  0.00    +0.000 A 
ATOM     13  CE1 TYR J   2       2.357  -4.813 -29.354  0.00  0.00    +0.000 A 
ATOM     14  CE2 TYR J   2       2.640  -6.217 -27.437  0.00  0.00    +0.000 A 
ATOM     15  CZ  TYR J   2       3.042  -5.807 -28.691  0.00  0.00    +0.000 A 
ATOM     16  OH  TYR J   2       4.134  -6.395 -29.285  0.00  0.00    +0.000 OA
ATOM     17  H   GLY J   1      -6.044  -0.781 -26.335  0.00  0.00    +0.000 HD
ATOM     18  H   GLY J   1      -5.884  -1.764 -27.670  0.00  0.00    +0.000 HD
ATOM     19  H   GLY J   1      -4.870  -0.458 -27.471  0.00  0.00    +0.000 HD
ATOM     20  H   TYR J   2      -2.993  -4.007 -25.760  0.00  0.00    +0.000 HD
ATOM     21  H   TYR J   2       4.409  -6.119 -30.137  0.00  0.00    +0.000 HD
TER 
REMARK  Name = /data/user_data/xianyang/t3-aimnet-affinity-balanced/L2/Q14145/pocket.pdb
REMARK                            x       y       z     vdW  Elec       q    Type
REMARK                         _______ _______ _______ _____ _____    ______ ____
ATOM      1  N   GLN K   1      -0.738  -2.902 -32.001  0.00  0.00    +0.000 N 
ATOM      2  CA  GLN K   1      -1.643  -2.023 -31.274  0.00  0.00    +0.000 C 
ATOM      3  C   GLN K   1      -3.035  -2.186 -31.861  0.00  0.00    +0.000 C 
ATOM      4  O   GLN K   1      -3.183  -2.455 -33.053  0.00  0.00    +0.000 OA
ATOM      5  CB  GLN K   1      -1.196  -0.564 -31.362  0.00  0.00    +0.000 C 
ATOM      6  CG  GLN K   1      -0.276  -0.128 -30.235  0.00  0.00    +0.000 C 
ATOM      7  CD  GLN K   1       1.134  -0.646 -30.399  0.00  0.00    +0.000 C 
ATOM      8  OE1 GLN K   1       1.493  -1.186 -31.446  0.00  0.00    +0.000 OA
ATOM      9  NE2 GLN K   1       1.947  -0.481 -29.364  0.00  0.00    +0.000 N 
ATOM     10  H   GLN K   1      -1.064  -3.865 -31.923  0.00  0.00    +0.000 HD
ATOM     11  H   GLN K   1       0.199  -2.827 -31.606  0.00  0.00    +0.000 HD
ATOM     12  H   GLN K   1      -0.716  -2.630 -32.984  0.00  0.00    +0.000 HD
ATOM     13  H   GLN K   1       2.878  -0.799 -29.413  0.00  0.00    +0.000 HD
ATOM     14  H   GLN K   1       1.620  -0.041 -28.546  0.00  0.00    +0.000 HD
TER 
REMARK  Name = /data/user_data/xianyang/t3-aimnet-affinity-balanced/L2/Q14145/pocket.pdb
REMARK                            x       y       z     vdW  Elec       q    Type
REMARK                         _______ _______ _______ _____ _____    ______ ____
ATOM      1  N   SER L   1      -2.290   1.884 -27.942  0.00  0.00    +0.000 N 
ATOM      2  CA  SER L   1      -2.115   1.231 -26.650  0.00  0.00    +0.000 C 
ATOM      3  C   SER L   1      -1.533   2.232 -25.663  0.00  0.00    +0.000 C 
ATOM      4  O   SER L   1      -0.888   3.200 -26.064  0.00  0.00    +0.000 OA
ATOM      5  CB  SER L   1      -1.198   0.010 -26.766  0.00  0.00    +0.000 C 
ATOM      6  OG  SER L   1       0.128   0.389 -27.094  0.00  0.00    +0.000 OA
ATOM      7  N   ALA L   2      -1.763   1.999 -24.376  0.00  0.00    +0.000 N 
ATOM      8  CA  ALA L   2      -1.326   2.931 -23.342  0.00  0.00    +0.000 C 
ATOM      9  C   ALA L   2      -2.108   4.236 -23.450  0.00  0.00    +0.000 C 
ATOM     10  O   ALA L   2      -1.574   5.319 -23.209  0.00  0.00    +0.000 OA
ATOM     11  CB  ALA L   2       0.168   3.191 -23.455  0.00  0.00    +0.000 C 
ATOM     12  H   SER L   1      -2.680   1.218 -28.609  0.00  0.00    +0.000 HD
ATOM     13  H   SER L   1      -1.387   2.215 -28.281  0.00  0.00    +0.000 HD
ATOM     14  H   SER L   1      -2.926   2.675 -27.840  0.00  0.00    +0.000 HD
ATOM     15  H   SER L   1       0.483   0.961 -26.395  0.00  0.00    +0.000 HD
ATOM     16  H   ALA L   2      -2.239   1.178 -24.114  0.00  0.00    +0.000 HD
TER 
REMARK  Name = /data/user_data/xianyang/t3-aimnet-affinity-balanced/L2/Q14145/pocket.pdb
REMARK                            x       y       z     vdW  Elec       q    Type
REMARK                         _______ _______ _______ _____ _____    ______ ____
ATOM      1  N   TYR M   1       0.071   4.999 -28.096  0.00  0.00    +0.000 N 
ATOM      2  CA  TYR M   1       1.128   4.679 -29.042  0.00  0.00    +0.000 C 
ATOM      3  C   TYR M   1       0.560   3.752 -30.110  0.00  0.00    +0.000 C 
ATOM      4  O   TYR M   1      -0.057   2.739 -29.787  0.00  0.00    +0.000 OA
ATOM      5  CB  TYR M   1       2.289   4.011 -28.303  0.00  0.00    +0.000 C 
ATOM      6  CG  TYR M   1       3.525   3.777 -29.138  0.00  0.00    +0.000 A 
ATOM      7  CD1 TYR M   1       4.278   4.844 -29.612  0.00  0.00    +0.000 A 
ATOM      8  CD2 TYR M   1       3.953   2.488 -29.433  0.00  0.00    +0.000 A 
ATOM      9  CE1 TYR M   1       5.415   4.634 -30.372  0.00  0.00    +0.000 A 
ATOM     10  CE2 TYR M   1       5.092   2.269 -30.191  0.00  0.00    +0.000 A 
ATOM     11  CZ  TYR M   1       5.817   3.346 -30.656  0.00  0.00    +0.000 A 
ATOM     12  OH  TYR M   1       6.947   3.135 -31.409  0.00  0.00    +0.000 OA
ATOM     13  H   TYR M   1      -0.703   5.444 -28.589  0.00  0.00    +0.000 HD
ATOM     14  H   TYR M   1       0.432   5.635 -27.385  0.00  0.00    +0.000 HD
ATOM     15  H   TYR M   1      -0.258   4.142 -27.651  0.00  0.00    +0.000 HD
ATOM     16  H   TYR M   1       7.442   3.865 -31.726  0.00  0.00    +0.000 HD
TER 
REMARK  Name = /data/user_data/xianyang/t3-aimnet-affinity-balanced/L2/Q14145/pocket.pdb
REMARK                            x       y       z     vdW  Elec       q    Type
REMARK                         _______ _______ _______ _____ _____    ______ ____
ATOM      1  N   GLY N   1       2.387   2.371 -32.613  0.00  0.00    +0.000 N 
ATOM      2  CA  GLY N   1       3.417   1.496 -33.137  0.00  0.00    +0.000 C 
ATOM      3  C   GLY N   1       4.607   2.273 -33.659  0.00  0.00    +0.000 C 
ATOM      4  O   GLY N   1       5.741   1.798 -33.597  0.00  0.00    +0.000 OA
ATOM      5  H   GLY N   1       1.606   1.811 -32.273  0.00  0.00    +0.000 HD
ATOM      6  H   GLY N   1       2.062   2.994 -33.352  0.00  0.00    +0.000 HD
ATOM      7  H   GLY N   1       2.769   2.924 -31.846  0.00  0.00    +0.000 HD
TER 
REMARK  Name = /data/user_data/xianyang/t3-aimnet-affinity-balanced/L2/Q14145/pocket.pdb
REMARK                            x       y       z     vdW  Elec       q    Type
REMARK                         _______ _______ _______ _____ _____    ______ ____
ATOM      1  N   PHE O   1       3.633   8.535 -31.020  0.00  0.00    +0.000 N 
ATOM      2  CA  PHE O   1       2.902   8.858 -29.806  0.00  0.00    +0.000 C 
ATOM      3  C   PHE O   1       1.775   9.816 -30.162  0.00  0.00    +0.000 C 
ATOM      4  O   PHE O   1       2.013  10.954 -30.555  0.00  0.00    +0.000 OA
ATOM      5  CB  PHE O   1       3.838   9.453 -28.757  0.00  0.00    +0.000 C 
ATOM      6  CG  PHE O   1       4.860   8.477 -28.248  0.00  0.00    +0.000 A 
ATOM      7  CD2 PHE O   1       4.577   7.660 -27.166  0.00  0.00    +0.000 A 
ATOM      8  CD1 PHE O   1       6.092   8.359 -28.863  0.00  0.00    +0.000 A 
ATOM      9  CE2 PHE O   1       5.512   6.753 -26.699  0.00  0.00    +0.000 A 
ATOM     10  CE1 PHE O   1       7.030   7.454 -28.401  0.00  0.00    +0.000 A 
ATOM     11  CZ  PHE O   1       6.740   6.652 -27.318  0.00  0.00    +0.000 A 
ATOM     12  H   PHE O   1       2.992   8.139 -31.708  0.00  0.00    +0.000 HD
ATOM     13  H   PHE O   1       4.364   7.856 -30.806  0.00  0.00    +0.000 HD
ATOM     14  H   PHE O   1       4.056   9.383 -31.398  0.00  0.00    +0.000 HD
TER 
REMARK  Name = /data/user_data/xianyang/t3-aimnet-affinity-balanced/L2/Q14145/pocket.pdb
REMARK                            x       y       z     vdW  Elec       q    Type
REMARK                         _______ _______ _______ _____ _____    ______ ____
ATOM      1  N   SER P   1       1.801   9.140 -24.497  0.00  0.00    +0.000 N 
ATOM      2  CA  SER P   1       1.178   7.876 -24.124  0.00  0.00    +0.000 C 
ATOM      3  C   SER P   1       1.223   7.667 -22.614  0.00  0.00    +0.000 C 
ATOM      4  O   SER P   1       1.851   8.439 -21.888  0.00  0.00    +0.000 OA
ATOM      5  CB  SER P   1       1.854   6.703 -24.841  0.00  0.00    +0.000 C 
ATOM      6  OG  SER P   1       3.195   6.543 -24.413  0.00  0.00    +0.000 OA
ATOM      7  N   GLY P   2       0.541   6.628 -22.145  0.00  0.00    +0.000 N 
ATOM      8  CA  GLY P   2       0.547   6.276 -20.736  0.00  0.00    +0.000 C 
ATOM      9  C   GLY P   2       0.105   7.366 -19.774  0.00  0.00    +0.000 C 
ATOM     10  O   GLY P   2       0.672   7.504 -18.691  0.00  0.00    +0.000 OA
ATOM     11  N   VAL P   3      -0.913   8.133 -20.159  0.00  0.00    +0.000 N 
ATOM     12  CA  VAL P   3      -1.449   9.180 -19.293  0.00  0.00    +0.000 C 
ATOM     13  C   VAL P   3      -2.458   8.619 -18.300  0.00  0.00    +0.000 C 
ATOM     14  O   VAL P   3      -2.933   7.494 -18.449  0.00  0.00    +0.000 OA
ATOM     15  CB  VAL P   3      -2.157  10.294 -20.096  0.00  0.00    +0.000 C 
ATOM     16  CG1 VAL P   3      -1.208  10.914 -21.115  0.00  0.00    +0.000 C 
ATOM     17  CG2 VAL P   3      -3.411   9.752 -20.772  0.00  0.00    +0.000 C 
ATOM     18  H   SER P   1       1.758   9.255 -25.510  0.00  0.00    +0.000 HD
ATOM     19  H   SER P   1       2.776   9.140 -24.196  0.00  0.00    +0.000 HD
ATOM     20  H   SER P   1       1.306   9.909 -24.046  0.00  0.00    +0.000 HD
ATOM     21  H   SER P   1       3.211   6.359 -23.461  0.00  0.00    +0.000 HD
ATOM     22  H   GLY P   2       0.015   6.080 -22.772  0.00  0.00    +0.000 HD
ATOM     23  H   VAL P   3      -1.313   7.991 -21.047  0.00  0.00    +0.000 HD
TER 
