REMARK  Name = /home/xianyang/aimnet2_score_pipelines/work/L1234-fixed-receptor-eint-20260921/L3/Q15878/prepared.pdb
REMARK                            x       y       z     vdW  Elec       q    Type
REMARK                         _______ _______ _______ _____ _____    ______ ____
ATOM      1  CH3 ACE A   1     145.360 184.042 168.719  0.00  0.00    +0.000 C 
ATOM      2  C   ACE A   1     144.722 182.957 169.558  0.00  0.00    +0.000 C 
ATOM      3  O   ACE A   1     145.202 181.823 169.545  0.00  0.00    +0.000 OA
ATOM      4  N   GLN A   2     143.654 183.269 170.289  0.00  0.00    +0.000 N 
ATOM      5  H   GLN A   2     143.317 184.219 170.297  0.00  0.00    +0.000 HD
ATOM      6  CA  GLN A   2     142.988 182.238 171.073  0.00  0.00    +0.000 C 
ATOM      7  C   GLN A   2     142.375 181.183 170.179  0.00  0.00    +0.000 C 
ATOM      8  O   GLN A   2     142.377 180.004 170.520  0.00  0.00    +0.000 OA
ATOM      9  CB  GLN A   2     141.902 182.826 171.958  0.00  0.00    +0.000 C 
ATOM     10  CG  GLN A   2     142.229 184.134 172.569  0.00  0.00    +0.000 C 
ATOM     11  CD  GLN A   2     141.157 184.582 173.518  0.00  0.00    +0.000 C 
ATOM     12  OE1 GLN A   2     140.287 183.802 173.895  0.00  0.00    +0.000 OA
ATOM     13  NE2 GLN A   2     141.197 185.848 173.898  0.00  0.00    +0.000 N 
ATOM     14 HE21 GLN A   2     140.463 186.146 174.519  0.00  0.00    +0.000 HD
ATOM     15 HE22 GLN A   2     141.913 186.472 173.576  0.00  0.00    +0.000 HD
ATOM     16  N   ILE A   3     141.808 181.578 169.050  0.00  0.00    +0.000 N 
ATOM     17  H   ILE A   3     141.770 182.553 168.794  0.00  0.00    +0.000 HD
ATOM     18  CA  ILE A   3     141.112 180.579 168.252  0.00  0.00    +0.000 C 
ATOM     19  C   ILE A   3     142.103 179.797 167.408  0.00  0.00    +0.000 C 
ATOM     20  O   ILE A   3     141.705 178.995 166.563  0.00  0.00    +0.000 OA
ATOM     21  CB  ILE A   3     140.017 181.207 167.379  0.00  0.00    +0.000 C 
ATOM     22  CG1 ILE A   3     140.626 182.156 166.359  0.00  0.00    +0.000 C 
ATOM     23  CG2 ILE A   3     139.016 181.928 168.252  0.00  0.00    +0.000 C 
ATOM     24  CD1 ILE A   3     139.630 182.687 165.368  0.00  0.00    +0.000 C 
ATOM     25  N   VAL A   4     143.393 180.034 167.608  0.00  0.00    +0.000 N 
ATOM     26  H   VAL A   4     143.668 180.762 168.249  0.00  0.00    +0.000 HD
ATOM     27  CA  VAL A   4     144.427 179.185 167.033  0.00  0.00    +0.000 C 
ATOM     28  C   VAL A   4     144.954 178.295 168.139  0.00  0.00    +0.000 C 
ATOM     29  O   VAL A   4     145.185 177.096 167.945  0.00  0.00    +0.000 OA
ATOM     30  CB  VAL A   4     145.568 179.998 166.419  0.00  0.00    +0.000 C 
ATOM     31  CG1 VAL A   4     146.573 179.072 165.836  0.00  0.00    +0.000 C 
ATOM     32  CG2 VAL A   4     145.036 180.920 165.369  0.00  0.00    +0.000 C 
ATOM     33  N   LEU A   5     145.141 178.886 169.311  0.00  0.00    +0.000 N 
ATOM     34  H   LEU A   5     145.082 179.896 169.383  0.00  0.00    +0.000 HD
ATOM     35  CA  LEU A   5     145.564 178.112 170.463  0.00  0.00    +0.000 C 
ATOM     36  C   LEU A   5     144.560 177.018 170.789  0.00  0.00    +0.000 C 
ATOM     37  O   LEU A   5     144.945 175.900 171.138  0.00  0.00    +0.000 OA
ATOM     38  CB  LEU A   5     145.750 179.034 171.652  0.00  0.00    +0.000 C 
ATOM     39  CG  LEU A   5     146.282 178.339 172.879  0.00  0.00    +0.000 C 
ATOM     40  CD1 LEU A   5     147.554 177.637 172.522  0.00  0.00    +0.000 C 
ATOM     41  CD2 LEU A   5     146.517 179.352 173.941  0.00  0.00    +0.000 C 
ATOM     42  N   LYS A   6     143.271 177.317 170.709  0.00  0.00    +0.000 N 
ATOM     43  H   LYS A   6     142.987 178.256 170.446  0.00  0.00    +0.000 HD
ATOM     44  CA  LYS A   6     142.289 176.295 171.022  0.00  0.00    +0.000 C 
ATOM     45  C   LYS A   6     142.332 175.182 170.003  0.00  0.00    +0.000 C 
ATOM     46  O   LYS A   6     142.160 174.020 170.358  0.00  0.00    +0.000 OA
ATOM     47  CB  LYS A   6     140.884 176.882 171.099  0.00  0.00    +0.000 C 
ATOM     48  CG  LYS A   6     140.723 177.968 172.150  0.00  0.00    +0.000 C 
ATOM     49  CD  LYS A   6     141.187 177.514 173.518  0.00  0.00    +0.000 C 
ATOM     50  CE  LYS A   6     140.942 178.585 174.554  0.00  0.00    +0.000 C 
ATOM     51  NZ  LYS A   6     141.822 179.754 174.389  0.00  0.00    +0.000 N 
ATOM     52  HZ1 LYS A   6     142.045 179.877 173.408  0.00  0.00    +0.000 HD
ATOM     53  HZ2 LYS A   6     142.674 179.636 174.924  0.00  0.00    +0.000 HD
ATOM     54  HZ3 LYS A   6     141.353 180.594 174.716  0.00  0.00    +0.000 HD
ATOM     55  N   SER A   7     142.574 175.510 168.743  0.00  0.00    +0.000 N 
ATOM     56  H   SER A   7     142.742 176.473 168.496  0.00  0.00    +0.000 HD
ATOM     57  CA  SER A   7     142.693 174.470 167.734  0.00  0.00    +0.000 C 
ATOM     58  C   SER A   7     143.876 173.560 168.026  0.00  0.00    +0.000 C 
ATOM     59  O   SER A   7     143.773 172.327 167.934  0.00  0.00    +0.000 OA
ATOM     60  CB  SER A   7     142.832 175.113 166.365  0.00  0.00    +0.000 C 
ATOM     61  OG  SER A   7     142.991 174.122 165.385  0.00  0.00    +0.000 OA
ATOM     62  HG  SER A   7     143.782 173.590 165.530  0.00  0.00    +0.000 HD
ATOM     63  N   ILE A   8     145.005 174.153 168.407  0.00  0.00    +0.000 N 
ATOM     64  H   ILE A   8     145.067 175.166 168.414  0.00  0.00    +0.000 HD
ATOM     65  CA  ILE A   8     146.191 173.362 168.723  0.00  0.00    +0.000 C 
ATOM     66  C   ILE A   8     145.944 172.466 169.924  0.00  0.00    +0.000 C 
ATOM     67  O   ILE A   8     146.197 171.261 169.876  0.00  0.00    +0.000 OA
ATOM     68  CB  ILE A   8     147.396 174.284 168.939  0.00  0.00    +0.000 C 
ATOM     69  CG1 ILE A   8     147.680 175.004 167.637  0.00  0.00    +0.000 C 
ATOM     70  CG2 ILE A   8     148.581 173.512 169.455  0.00  0.00    +0.000 C 
ATOM     71  CD1 ILE A   8     147.981 174.054 166.508  0.00  0.00    +0.000 C 
ATOM     72  N   MET A   9     145.437 173.029 171.016  0.00  0.00    +0.000 N 
ATOM     73  H   MET A   9     145.267 174.029 171.040  0.00  0.00    +0.000 HD
ATOM     74  CA  MET A   9     145.115 172.201 172.173  0.00  0.00    +0.000 C 
ATOM     75  C   MET A   9     144.062 171.155 171.836  0.00  0.00    +0.000 C 
ATOM     76  O   MET A   9     144.024 170.092 172.456  0.00  0.00    +0.000 OA
ATOM     77  CB  MET A   9     144.651 173.071 173.339  0.00  0.00    +0.000 C 
ATOM     78  CG  MET A   9     144.309 172.305 174.618  0.00  0.00    +0.000 C 
ATOM     79  SD  MET A   9     145.694 171.461 175.422  0.00  0.00    +0.000 S 
ATOM     80  CE  MET A   9     144.855 170.109 176.252  0.00  0.00    +0.000 C 
ATOM     81  N   LYS A  10     143.208 171.425 170.859  0.00  0.00    +0.000 N 
ATOM     82  H   LYS A  10     143.220 172.336 170.416  0.00  0.00    +0.000 HD
ATOM     83  CA  LYS A  10     142.218 170.443 170.459  0.00  0.00    +0.000 C 
ATOM     84  C   LYS A  10     142.849 169.254 169.767  0.00  0.00    +0.000 C 
ATOM     85  O   LYS A  10     142.365 168.132 169.911  0.00  0.00    +0.000 OA
ATOM     86  CB  LYS A  10     141.196 171.089 169.538  0.00  0.00    +0.000 C 
ATOM     87  CG  LYS A  10     139.886 170.378 169.497  0.00  0.00    +0.000 C 
ATOM     88  CD  LYS A  10     138.884 171.166 168.695  0.00  0.00    +0.000 C 
ATOM     89  CE  LYS A  10     139.359 171.327 167.286  0.00  0.00    +0.000 C 
ATOM     90  NZ  LYS A  10     139.804 170.017 166.775  0.00  0.00    +0.000 N 
ATOM     91  HZ1 LYS A  10     140.350 170.126 165.914  0.00  0.00    +0.000 HD
ATOM     92  HZ2 LYS A  10     139.071 169.339 166.640  0.00  0.00    +0.000 HD
ATOM     93  HZ3 LYS A  10     140.492 169.579 167.379  0.00  0.00    +0.000 HD
ATOM     94  N   ALA A  11     143.913 169.471 169.004  0.00  0.00    +0.000 N 
ATOM     95  H   ALA A  11     144.260 170.409 168.850  0.00  0.00    +0.000 HD
ATOM     96  CA  ALA A  11     144.542 168.340 168.337  0.00  0.00    +0.000 C 
ATOM     97  C   ALA A  11     145.334 167.439 169.277  0.00  0.00    +0.000 C 
ATOM     98  O   ALA A  11     145.766 166.367 168.848  0.00  0.00    +0.000 OA
ATOM     99  CB  ALA A  11     145.454 168.826 167.219  0.00  0.00    +0.000 C 
ATOM    100  N   MET A  12     145.539 167.832 170.534  0.00  0.00    +0.000 N 
ATOM    101  H   MET A  12     145.178 168.728 170.831  0.00  0.00    +0.000 HD
ATOM    102  CA  MET A  12     146.346 167.049 171.462  0.00  0.00    +0.000 C 
ATOM    103  C   MET A  12     145.528 166.237 172.449  0.00  0.00    +0.000 C 
ATOM    104  O   MET A  12     146.106 165.459 173.206  0.00  0.00    +0.000 OA
ATOM    105  CB  MET A  12     147.293 167.950 172.257  0.00  0.00    +0.000 C 
ATOM    106  CG  MET A  12     148.347 168.597 171.419  0.00  0.00    +0.000 C 
ATOM    107  SD  MET A  12     149.431 169.720 172.293  0.00  0.00    +0.000 S 
ATOM    108  CE  MET A  12     150.371 168.560 173.266  0.00  0.00    +0.000 C 
ATOM    109  N   NME A  13     144.213 166.410 172.490  0.00  0.00    +0.000 N 
ATOM    110  H   NME A  13     143.772 167.035 171.828  0.00  0.00    +0.000 HD
ATOM    111  C   NME A  13     143.395 165.591 173.380  0.00  0.00    +0.000 C 
TER 
REMARK  Name = /home/xianyang/aimnet2_score_pipelines/work/L1234-fixed-receptor-eint-20260921/L3/Q15878/prepared.pdb
REMARK                            x       y       z     vdW  Elec       q    Type
REMARK                         _______ _______ _______ _____ _____    ______ ____
ATOM      1  CH3 ACE B   1     147.680 161.509 161.718  0.00  0.00    +0.000 C 
ATOM      2  C   ACE B   1     146.226 161.111 161.578  0.00  0.00    +0.000 C 
ATOM      3  O   ACE B   1     145.521 161.617 160.704  0.00  0.00    +0.000 OA
ATOM      4  N   GLY B   2     145.745 160.222 162.438  0.00  0.00    +0.000 N 
ATOM      5  H   GLY B   2     146.360 159.778 163.102  0.00  0.00    +0.000 HD
ATOM      6  CA  GLY B   2     144.320 159.965 162.470  0.00  0.00    +0.000 C 
ATOM      7  C   GLY B   2     143.520 161.200 162.821  0.00  0.00    +0.000 C 
ATOM      8  O   GLY B   2     142.486 161.472 162.219  0.00  0.00    +0.000 OA
ATOM      9  N   GLU B   3     143.995 161.971 163.791  0.00  0.00    +0.000 N 
ATOM     10  H   GLU B   3     144.833 161.717 164.289  0.00  0.00    +0.000 HD
ATOM     11  CA  GLU B   3     143.290 163.188 164.169  0.00  0.00    +0.000 C 
ATOM     12  C   GLU B   3     143.302 164.219 163.054  0.00  0.00    +0.000 C 
ATOM     13  O   GLU B   3     142.342 164.971 162.887  0.00  0.00    +0.000 OA
ATOM     14  CB  GLU B   3     143.904 163.779 165.420  0.00  0.00    +0.000 C 
ATOM     15  CG  GLU B   3     143.249 165.047 165.828  0.00  0.00    +0.000 C 
ATOM     16  CD  GLU B   3     141.907 164.809 166.466  0.00  0.00    +0.000 C 
ATOM     17  OE1 GLU B   3     141.648 163.673 166.911  0.00  0.00    +0.000 OA
ATOM     18  OE2 GLU B   3     141.103 165.758 166.515  0.00  0.00    +0.000 OA
ATOM     19  N   PHE B   4     144.381 164.288 162.294  0.00  0.00    +0.000 N 
ATOM     20  H   PHE B   4     145.169 163.694 162.489  0.00  0.00    +0.000 HD
ATOM     21  CA  PHE B   4     144.441 165.224 161.182  0.00  0.00    +0.000 C 
ATOM     22  C   PHE B   4     143.547 164.781 160.039  0.00  0.00    +0.000 C 
ATOM     23  O   PHE B   4     142.963 165.616 159.350  0.00  0.00    +0.000 OA
ATOM     24  CB  PHE B   4     145.877 165.380 160.714  0.00  0.00    +0.000 C 
ATOM     25  CG  PHE B   4     146.771 166.007 161.731  0.00  0.00    +0.000 A 
ATOM     26  CD1 PHE B   4     146.250 166.789 162.733  0.00  0.00    +0.000 A 
ATOM     27  CD2 PHE B   4     148.121 165.816 161.690  0.00  0.00    +0.000 A 
ATOM     28  CE1 PHE B   4     147.060 167.370 163.664  0.00  0.00    +0.000 A 
ATOM     29  CE2 PHE B   4     148.919 166.399 162.618  0.00  0.00    +0.000 A 
ATOM     30  CZ  PHE B   4     148.385 167.178 163.606  0.00  0.00    +0.000 A 
ATOM     31  N   ALA B   5     143.434 163.480 159.801  0.00  0.00    +0.000 N 
ATOM     32  H   ALA B   5     143.990 162.810 160.321  0.00  0.00    +0.000 HD
ATOM     33  CA  ALA B   5     142.480 163.021 158.801  0.00  0.00    +0.000 C 
ATOM     34  C   ALA B   5     141.055 163.321 159.224  0.00  0.00    +0.000 C 
ATOM     35  O   ALA B   5     140.235 163.728 158.404  0.00  0.00    +0.000 OA
ATOM     36  CB  ALA B   5     142.640 161.532 158.548  0.00  0.00    +0.000 C 
ATOM     37  N   LYS B   6     140.738 163.116 160.499  0.00  0.00    +0.000 N 
ATOM     38  H   LYS B   6     141.442 162.741 161.128  0.00  0.00    +0.000 HD
ATOM     39  CA  LYS B   6     139.389 163.367 160.983  0.00  0.00    +0.000 C 
ATOM     40  C   LYS B   6     139.081 164.841 161.104  0.00  0.00    +0.000 C 
ATOM     41  O   LYS B   6     137.908 165.204 161.152  0.00  0.00    +0.000 OA
ATOM     42  CB  LYS B   6     139.187 162.722 162.339  0.00  0.00    +0.000 C 
ATOM     43  CG  LYS B   6     138.804 161.292 162.267  0.00  0.00    +0.000 C 
ATOM     44  CD  LYS B   6     139.350 160.540 163.449  0.00  0.00    +0.000 C 
ATOM     45  CE  LYS B   6     138.933 161.153 164.753  0.00  0.00    +0.000 C 
ATOM     46  NZ  LYS B   6     139.360 160.276 165.860  0.00  0.00    +0.000 N 
ATOM     47  HZ1 LYS B   6     139.045 160.669 166.740  0.00  0.00    +0.000 HD
ATOM     48  HZ2 LYS B   6     138.997 159.339 165.756  0.00  0.00    +0.000 HD
ATOM     49  HZ3 LYS B   6     140.372 160.261 165.907  0.00  0.00    +0.000 HD
ATOM     50  N   GLU B   7     140.085 165.695 161.189  0.00  0.00    +0.000 N 
ATOM     51  H   GLU B   7     141.017 165.343 161.374  0.00  0.00    +0.000 HD
ATOM     52  CA  GLU B   7     139.822 167.113 161.360  0.00  0.00    +0.000 C 
ATOM     53  C   GLU B   7     139.817 167.877 160.054  0.00  0.00    +0.000 C 
ATOM     54  O   GLU B   7     139.295 168.989 160.006  0.00  0.00    +0.000 OA
ATOM     55  CB  GLU B   7     140.853 167.733 162.292  0.00  0.00    +0.000 C 
ATOM     56  CG  GLU B   7     140.400 169.016 162.917  0.00  0.00    +0.000 C 
ATOM     57  CD  GLU B   7     141.255 169.423 164.101  0.00  0.00    +0.000 C 
ATOM     58  OE1 GLU B   7     141.740 168.526 164.819  0.00  0.00    +0.000 OA
ATOM     59  OE2 GLU B   7     141.440 170.641 164.316  0.00  0.00    +0.000 OA
ATOM     60  N   ARG B   8     140.396 167.324 159.000  0.00  0.00    +0.000 N 
ATOM     61  H   ARG B   8     140.891 166.443 159.098  0.00  0.00    +0.000 HD
ATOM     62  CA  ARG B   8     140.343 168.003 157.721  0.00  0.00    +0.000 C 
ATOM     63  C   ARG B   8     138.957 167.943 157.111  0.00  0.00    +0.000 C 
ATOM     64  O   ARG B   8     138.668 168.708 156.194  0.00  0.00    +0.000 OA
ATOM     65  CB  ARG B   8     141.359 167.387 156.771  0.00  0.00    +0.000 C 
ATOM     66  CG  ARG B   8     142.747 167.933 156.945  0.00  0.00    +0.000 C 
ATOM     67  CD  ARG B   8     143.609 167.606 155.770  0.00  0.00    +0.000 C 
ATOM     68  NE  ARG B   8     143.334 168.509 154.667  0.00  0.00    +0.000 N 
ATOM     69  HE  ARG B   8     143.651 169.468 154.759  0.00  0.00    +0.000 HD
ATOM     70  CZ  ARG B   8     142.797 168.135 153.517  0.00  0.00    +0.000 C 
ATOM     71  NH1 ARG B   8     142.480 166.867 153.314  0.00  0.00    +0.000 N 
ATOM     72 HH11 ARG B   8     141.903 166.604 152.539  0.00  0.00    +0.000 HD
ATOM     73 HH12 ARG B   8     142.503 166.250 154.107  0.00  0.00    +0.000 HD
ATOM     74  NH2 ARG B   8     142.579 169.028 152.572  0.00  0.00    +0.000 N 
ATOM     75 HH21 ARG B   8     142.276 168.707 151.646  0.00  0.00    +0.000 HD
ATOM     76 HH22 ARG B   8     142.969 169.962 152.688  0.00  0.00    +0.000 HD
ATOM     77  N   GLU B   9     138.097 167.056 157.598  0.00  0.00    +0.000 N 
ATOM     78  H   GLU B   9     138.440 166.398 158.280  0.00  0.00    +0.000 HD
ATOM     79  CA  GLU B   9     136.790 166.822 157.011  0.00  0.00    +0.000 C 
ATOM     80  C   GLU B   9     135.654 167.458 157.784  0.00  0.00    +0.000 C 
ATOM     81  O   GLU B   9     134.499 167.294 157.397  0.00  0.00    +0.000 OA
ATOM     82  CB  GLU B   9     136.527 165.333 156.899  0.00  0.00    +0.000 C 
ATOM     83  CG  GLU B   9     137.606 164.649 156.187  0.00  0.00    +0.000 C 
ATOM     84  CD  GLU B   9     137.828 165.242 154.842  0.00  0.00    +0.000 C 
ATOM     85  OE1 GLU B   9     136.841 165.588 154.180  0.00  0.00    +0.000 OA
ATOM     86  OE2 GLU B   9     138.994 165.364 154.436  0.00  0.00    +0.000 OA
ATOM     87  N   ARG B  10     135.938 168.164 158.865  0.00  0.00    +0.000 N 
ATOM     88  H   ARG B  10     136.906 168.314 159.118  0.00  0.00    +0.000 HD
ATOM     89  CA  ARG B  10     134.881 168.916 159.502  0.00  0.00    +0.000 C 
ATOM     90  C   ARG B  10     134.351 169.963 158.541  0.00  0.00    +0.000 C 
ATOM     91  O   ARG B  10     135.063 170.439 157.658  0.00  0.00    +0.000 OA
ATOM     92  CB  ARG B  10     135.383 169.571 160.775  0.00  0.00    +0.000 C 
ATOM     93  CG  ARG B  10     135.123 168.752 162.014  0.00  0.00    +0.000 C 
ATOM     94  CD  ARG B  10     134.837 169.667 163.185  0.00  0.00    +0.000 C 
ATOM     95  NE  ARG B  10     135.660 170.863 163.105  0.00  0.00    +0.000 N 
ATOM     96  HE  ARG B  10     135.231 171.719 162.832  0.00  0.00    +0.000 HD
ATOM     97  CZ  ARG B  10     136.945 170.894 163.432  0.00  0.00    +0.000 C 
ATOM     98  NH1 ARG B  10     137.528 169.798 163.885  0.00  0.00    +0.000 N 
ATOM     99 HH11 ARG B  10     138.529 169.812 163.931  0.00  0.00    +0.000 HD
ATOM    100 HH12 ARG B  10     137.005 168.944 163.844  0.00  0.00    +0.000 HD
ATOM    101  NH2 ARG B  10     137.637 172.016 163.323  0.00  0.00    +0.000 N 
ATOM    102 HH21 ARG B  10     137.162 172.789 162.882  0.00  0.00    +0.000 HD
ATOM    103 HH22 ARG B  10     138.642 171.991 163.348  0.00  0.00    +0.000 HD
ATOM    104  N   VAL B  11     133.078 170.315 158.718  0.00  0.00    +0.000 N 
ATOM    105  H   VAL B  11     132.567 169.949 159.505  0.00  0.00    +0.000 HD
ATOM    106  CA  VAL B  11     132.401 171.193 157.770  0.00  0.00    +0.000 C 
ATOM    107  C   VAL B  11     133.120 172.523 157.658  0.00  0.00    +0.000 C 
ATOM    108  O   VAL B  11     133.306 173.054 156.559  0.00  0.00    +0.000 OA
ATOM    109  CB  VAL B  11     130.936 171.379 158.186  0.00  0.00    +0.000 C 
ATOM    110  CG1 VAL B  11     130.259 172.371 157.282  0.00  0.00    +0.000 C 
ATOM    111  CG2 VAL B  11     130.226 170.047 158.150  0.00  0.00    +0.000 C 
ATOM    112  N   GLU B  12     133.552 173.076 158.784  0.00  0.00    +0.000 N 
ATOM    113  H   GLU B  12     133.309 172.639 159.655  0.00  0.00    +0.000 HD
ATOM    114  CA  GLU B  12     134.181 174.385 158.748  0.00  0.00    +0.000 C 
ATOM    115  C   GLU B  12     135.547 174.332 158.081  0.00  0.00    +0.000 C 
ATOM    116  O   GLU B  12     136.135 175.378 157.794  0.00  0.00    +0.000 OA
ATOM    117  CB  GLU B  12     134.296 174.938 160.162  0.00  0.00    +0.000 C 
ATOM    118  CG  GLU B  12     134.971 173.982 161.118  0.00  0.00    +0.000 C 
ATOM    119  CD  GLU B  12     133.993 173.098 161.845  0.00  0.00    +0.000 C 
ATOM    120  OE1 GLU B  12     134.194 172.853 163.051  0.00  0.00    +0.000 OA
ATOM    121  OE2 GLU B  12     133.027 172.638 161.206  0.00  0.00    +0.000 OA
ATOM    122  N   ASN B  13     136.079 173.136 157.846  0.00  0.00    +0.000 N 
ATOM    123  H   ASN B  13     135.556 172.308 158.098  0.00  0.00    +0.000 HD
ATOM    124  CA  ASN B  13     137.349 172.983 157.151  0.00  0.00    +0.000 C 
ATOM    125  C   ASN B  13     137.186 172.613 155.687  0.00  0.00    +0.000 C 
ATOM    126  O   ASN B  13     137.922 173.127 154.841  0.00  0.00    +0.000 OA
ATOM    127  CB  ASN B  13     138.213 171.934 157.842  0.00  0.00    +0.000 C 
ATOM    128  CG  ASN B  13     138.774 172.416 159.148  0.00  0.00    +0.000 C 
ATOM    129  OD1 ASN B  13     138.203 172.188 160.206  0.00  0.00    +0.000 OA
ATOM    130  ND2 ASN B  13     139.906 173.086 159.084  0.00  0.00    +0.000 N 
ATOM    131 HD21 ASN B  13     140.407 173.158 158.208  0.00  0.00    +0.000 HD
ATOM    132 HD22 ASN B  13     140.317 173.399 159.948  0.00  0.00    +0.000 HD
ATOM    133  N   ARG B  14     136.246 171.731 155.353  0.00  0.00    +0.000 N 
ATOM    134  H   ARG B  14     135.701 171.281 156.084  0.00  0.00    +0.000 HD
ATOM    135  CA  ARG B  14     135.912 171.552 153.948  0.00  0.00    +0.000 C 
ATOM    136  C   ARG B  14     135.491 172.869 153.329  0.00  0.00    +0.000 C 
ATOM    137  O   ARG B  14     135.792 173.140 152.165  0.00  0.00    +0.000 OA
ATOM    138  CB  ARG B  14     134.794 170.534 153.780  0.00  0.00    +0.000 C 
ATOM    139  CG  ARG B  14     135.199 169.130 153.968  0.00  0.00    +0.000 C 
ATOM    140  CD  ARG B  14     136.419 168.820 153.178  0.00  0.00    +0.000 C 
ATOM    141  NE  ARG B  14     136.204 168.868 151.744  0.00  0.00    +0.000 N 
ATOM    142  HE  ARG B  14     135.265 168.996 151.411  0.00  0.00    +0.000 HD
ATOM    143  CZ  ARG B  14     137.183 168.699 150.866  0.00  0.00    +0.000 C 
ATOM    144  NH1 ARG B  14     138.412 168.483 151.303  0.00  0.00    +0.000 N 
ATOM    145 HH11 ARG B  14     138.499 168.261 152.286  0.00  0.00    +0.000 HD
ATOM    146 HH12 ARG B  14     139.155 168.337 150.658  0.00  0.00    +0.000 HD
ATOM    147  NH2 ARG B  14     136.942 168.746 149.566  0.00  0.00    +0.000 N 
ATOM    148 HH21 ARG B  14     137.679 168.567 148.914  0.00  0.00    +0.000 HD
ATOM    149 HH22 ARG B  14     136.007 168.933 149.253  0.00  0.00    +0.000 HD
ATOM    150  N   NME B  15     134.779 173.697 154.084  0.00  0.00    +0.000 N 
ATOM    151  H   NME B  15     134.515 173.425 155.025  0.00  0.00    +0.000 HD
ATOM    152  C   NME B  15     134.340 174.975 153.548  0.00  0.00    +0.000 C 
TER 
REMARK  Name = /home/xianyang/aimnet2_score_pipelines/work/L1234-fixed-receptor-eint-20260921/L3/Q15878/prepared.pdb
REMARK                            x       y       z     vdW  Elec       q    Type
REMARK                         _______ _______ _______ _____ _____    ______ ____
ATOM      1  CH3 ACE C   1     153.326 176.925 147.680  0.00  0.00    +0.000 C 
ATOM      2  C   ACE C   1     152.055 177.756 147.742  0.00  0.00    +0.000 C 
ATOM      3  O   ACE C   1     151.953 178.688 148.538  0.00  0.00    +0.000 OA
ATOM      4  N   VAL C   2     151.069 177.442 146.913  0.00  0.00    +0.000 N 
ATOM      5  H   VAL C   2     151.216 176.728 146.216  0.00  0.00    +0.000 HD
ATOM      6  CA  VAL C   2     149.783 178.126 146.989  0.00  0.00    +0.000 C 
ATOM      7  C   VAL C   2     149.088 177.829 148.306  0.00  0.00    +0.000 C 
ATOM      8  O   VAL C   2     148.507 178.718 148.935  0.00  0.00    +0.000 OA
ATOM      9  CB  VAL C   2     148.912 177.728 145.793  0.00  0.00    +0.000 C 
ATOM     10  CG1 VAL C   2     147.486 177.988 146.091  0.00  0.00    +0.000 C 
ATOM     11  CG2 VAL C   2     149.338 178.496 144.584  0.00  0.00    +0.000 C 
ATOM     12  N   SER C   3     149.128 176.577 148.742  0.00  0.00    +0.000 N 
ATOM     13  H   SER C   3     149.565 175.864 148.182  0.00  0.00    +0.000 HD
ATOM     14  CA  SER C   3     148.470 176.216 149.984  0.00  0.00    +0.000 C 
ATOM     15  C   SER C   3     149.211 176.745 151.190  0.00  0.00    +0.000 C 
ATOM     16  O   SER C   3     148.615 176.899 152.255  0.00  0.00    +0.000 OA
ATOM     17  CB  SER C   3     148.345 174.717 150.090  0.00  0.00    +0.000 C 
ATOM     18  OG  SER C   3     147.442 174.410 151.116  0.00  0.00    +0.000 OA
ATOM     19  HG  SER C   3     147.707 174.849 151.948  0.00  0.00    +0.000 HD
ATOM     20  N   LEU C   4     150.515 176.971 151.067  0.00  0.00    +0.000 N 
ATOM     21  H   LEU C   4     150.958 176.842 150.175  0.00  0.00    +0.000 HD
ATOM     22  CA  LEU C   4     151.252 177.619 152.142  0.00  0.00    +0.000 C 
ATOM     23  C   LEU C   4     150.972 179.108 152.174  0.00  0.00    +0.000 C 
ATOM     24  O   LEU C   4     150.732 179.673 153.240  0.00  0.00    +0.000 OA
ATOM     25  CB  LEU C   4     152.741 177.364 151.988  0.00  0.00    +0.000 C 
ATOM     26  CG  LEU C   4     153.233 176.038 152.545  0.00  0.00    +0.000 C 
ATOM     27  CD1 LEU C   4     154.710 175.948 152.381  0.00  0.00    +0.000 C 
ATOM     28  CD2 LEU C   4     152.877 175.913 153.985  0.00  0.00    +0.000 C 
ATOM     29  N   MET C   5     150.973 179.760 151.017  0.00  0.00    +0.000 N 
ATOM     30  H   MET C   5     151.207 179.275 150.159  0.00  0.00    +0.000 HD
ATOM     31  CA  MET C   5     150.766 181.198 150.985  0.00  0.00    +0.000 C 
ATOM     32  C   MET C   5     149.347 181.574 151.360  0.00  0.00    +0.000 C 
ATOM     33  O   MET C   5     149.120 182.681 151.846  0.00  0.00    +0.000 OA
ATOM     34  CB  MET C   5     151.105 181.751 149.608  0.00  0.00    +0.000 C 
ATOM     35  CG  MET C   5     152.581 182.000 149.386  0.00  0.00    +0.000 C 
ATOM     36  SD  MET C   5     152.901 183.015 147.937  0.00  0.00    +0.000 S 
ATOM     37  CE  MET C   5     154.691 183.017 147.888  0.00  0.00    +0.000 C 
ATOM     38  N   SER C   6     148.372 180.702 151.121  0.00  0.00    +0.000 N 
ATOM     39  H   SER C   6     148.560 179.822 150.652  0.00  0.00    +0.000 HD
ATOM     40  CA  SER C   6     147.026 181.009 151.585  0.00  0.00    +0.000 C 
ATOM     41  C   SER C   6     146.955 180.942 153.098  0.00  0.00    +0.000 C 
ATOM     42  O   SER C   6     146.465 181.867 153.751  0.00  0.00    +0.000 OA
ATOM     43  CB  SER C   6     146.018 180.048 150.980  0.00  0.00    +0.000 C 
ATOM     44  OG  SER C   6     146.119 178.795 151.612  0.00  0.00    +0.000 OA
ATOM     45  HG  SER C   6     145.565 178.749 152.396  0.00  0.00    +0.000 HD
ATOM     46  N   SER C   7     147.454 179.854 153.674  0.00  0.00    +0.000 N 
ATOM     47  H   SER C   7     147.831 179.107 153.094  0.00  0.00    +0.000 HD
ATOM     48  CA  SER C   7     147.445 179.664 155.121  0.00  0.00    +0.000 C 
ATOM     49  C   SER C   7     148.758 180.181 155.694  0.00  0.00    +0.000 C 
ATOM     50  O   SER C   7     149.680 179.438 156.004  0.00  0.00    +0.000 OA
ATOM     51  CB  SER C   7     147.223 178.201 155.468  0.00  0.00    +0.000 C 
ATOM     52  OG  SER C   7     148.399 177.456 155.253  0.00  0.00    +0.000 OA
ATOM     53  HG  SER C   7     149.166 178.019 155.447  0.00  0.00    +0.000 HD
ATOM     54  N   MET C   8     148.836 181.490 155.787  0.00  0.00    +0.000 N 
ATOM     55  H   MET C   8     148.147 182.012 155.260  0.00  0.00    +0.000 HD
ATOM     56  CA  MET C   8     150.002 182.167 156.311  0.00  0.00    +0.000 C 
ATOM     57  C   MET C   8     149.675 183.028 157.503  0.00  0.00    +0.000 C 
ATOM     58  O   MET C   8     150.517 183.197 158.373  0.00  0.00    +0.000 OA
ATOM     59  CB  MET C   8     150.640 183.040 155.230  0.00  0.00    +0.000 C 
ATOM     60  CG  MET C   8     152.021 183.523 155.540  0.00  0.00    +0.000 C 
ATOM     61  SD  MET C   8     153.278 182.398 154.928  0.00  0.00    +0.000 S 
ATOM     62  CE  MET C   8     154.482 182.490 156.245  0.00  0.00    +0.000 C 
ATOM     63  N   LYS C   9     148.469 183.575 157.570  0.00  0.00    +0.000 N 
ATOM     64  H   LYS C   9     147.828 183.445 156.802  0.00  0.00    +0.000 HD
ATOM     65  CA  LYS C   9     148.031 184.221 158.790  0.00  0.00    +0.000 C 
ATOM     66  C   LYS C   9     147.802 183.216 159.897  0.00  0.00    +0.000 C 
ATOM     67  O   LYS C   9     147.675 183.611 161.054  0.00  0.00    +0.000 OA
ATOM     68  CB  LYS C   9     146.748 185.003 158.550  0.00  0.00    +0.000 C 
ATOM     69  CG  LYS C   9     146.835 186.009 157.431  0.00  0.00    +0.000 C 
ATOM     70  CD  LYS C   9     145.545 186.791 157.306  0.00  0.00    +0.000 C 
ATOM     71  CE  LYS C   9     145.528 187.674 156.080  0.00  0.00    +0.000 C 
ATOM     72  NZ  LYS C   9     145.334 186.871 154.850  0.00  0.00    +0.000 N 
ATOM     73  HZ1 LYS C   9     145.307 187.473 154.036  0.00  0.00    +0.000 HD
ATOM     74  HZ2 LYS C   9     144.459 186.363 154.889  0.00  0.00    +0.000 HD
ATOM     75  HZ3 LYS C   9     146.091 186.211 154.723  0.00  0.00    +0.000 HD
ATOM     76  N   SER C  10     147.729 181.933 159.572  0.00  0.00    +0.000 N 
ATOM     77  H   SER C  10     147.769 181.672 158.602  0.00  0.00    +0.000 HD
ATOM     78  CA  SER C  10     147.558 180.907 160.581  0.00  0.00    +0.000 C 
ATOM     79  C   SER C  10     148.812 180.091 160.826  0.00  0.00    +0.000 C 
ATOM     80  O   SER C  10     148.831 179.299 161.760  0.00  0.00    +0.000 OA
ATOM     81  CB  SER C  10     146.424 179.968 160.203  0.00  0.00    +0.000 C 
ATOM     82  OG  SER C  10     146.346 178.930 161.152  0.00  0.00    +0.000 OA
ATOM     83  HG  SER C  10     147.245 178.760 161.524  0.00  0.00    +0.000 HD
ATOM     84  N   ILE C  11     149.839 180.239 160.004  0.00  0.00    +0.000 N 
ATOM     85  H   ILE C  11     149.753 180.847 159.207  0.00  0.00    +0.000 HD
ATOM     86  CA  ILE C  11     151.155 179.726 160.343  0.00  0.00    +0.000 C 
ATOM     87  C   ILE C  11     151.933 180.743 161.160  0.00  0.00    +0.000 C 
ATOM     88  O   ILE C  11     152.647 180.382 162.092  0.00  0.00    +0.000 OA
ATOM     89  CB  ILE C  11     151.919 179.346 159.066  0.00  0.00    +0.000 C 
ATOM     90  CG1 ILE C  11     151.358 178.091 158.429  0.00  0.00    +0.000 C 
ATOM     91  CG2 ILE C  11     153.366 179.116 159.361  0.00  0.00    +0.000 C 
ATOM     92  CD1 ILE C  11     152.081 177.733 157.166  0.00  0.00    +0.000 C 
ATOM     93  N   ILE C  12     151.841 182.024 160.810  0.00  0.00    +0.000 N 
ATOM     94  H   ILE C  12     151.333 182.293 159.976  0.00  0.00    +0.000 HD
ATOM     95  CA  ILE C  12     152.488 183.059 161.606  0.00  0.00    +0.000 C 
ATOM     96  C   ILE C  12     151.840 183.179 162.969  0.00  0.00    +0.000 C 
ATOM     97  O   ILE C  12     152.528 183.288 163.984  0.00  0.00    +0.000 OA
ATOM     98  CB  ILE C  12     152.472 184.403 160.872  0.00  0.00    +0.000 C 
ATOM     99  CG1 ILE C  12     153.276 184.317 159.594  0.00  0.00    +0.000 C 
ATOM    100  CG2 ILE C  12     153.011 185.469 161.741  0.00  0.00    +0.000 C 
ATOM    101  CD1 ILE C  12     153.092 185.504 158.718  0.00  0.00    +0.000 C 
ATOM    102  N   SER C  13     150.518 183.176 163.026  0.00  0.00    +0.000 N 
ATOM    103  H   SER C  13     149.944 183.113 162.198  0.00  0.00    +0.000 HD
ATOM    104  CA  SER C  13     149.894 183.304 164.329  0.00  0.00    +0.000 C 
ATOM    105  C   SER C  13     150.073 182.072 165.163  0.00  0.00    +0.000 C 
ATOM    106  O   SER C  13     149.499 181.992 166.244  0.00  0.00    +0.000 OA
ATOM    107  CB  SER C  13     148.411 183.572 164.202  0.00  0.00    +0.000 C 
ATOM    108  OG  SER C  13     147.739 182.348 164.059  0.00  0.00    +0.000 OA
ATOM    109  HG  SER C  13     147.843 181.870 164.898  0.00  0.00    +0.000 HD
ATOM    110  N   LEU C  14     150.808 181.094 164.665  0.00  0.00    +0.000 N 
ATOM    111  H   LEU C  14     151.227 181.221 163.759  0.00  0.00    +0.000 HD
ATOM    112  CA  LEU C  14     151.064 179.850 165.360  0.00  0.00    +0.000 C 
ATOM    113  C   LEU C  14     152.518 179.698 165.750  0.00  0.00    +0.000 C 
ATOM    114  O   LEU C  14     152.809 179.285 166.868  0.00  0.00    +0.000 OA
ATOM    115  CB  LEU C  14     150.625 178.690 164.475  0.00  0.00    +0.000 C 
ATOM    116  CG  LEU C  14     150.672 177.279 164.965  0.00  0.00    +0.000 C 
ATOM    117  CD1 LEU C  14     149.763 177.297 166.113  0.00  0.00    +0.000 C 
ATOM    118  CD2 LEU C  14     150.091 176.416 163.894  0.00  0.00    +0.000 C 
ATOM    119  N   LEU C  15     153.439 180.069 164.870  0.00  0.00    +0.000 N 
ATOM    120  H   LEU C  15     153.164 180.331 163.932  0.00  0.00    +0.000 HD
ATOM    121  CA  LEU C  15     154.796 180.336 165.317  0.00  0.00    +0.000 C 
ATOM    122  C   LEU C  15     154.822 181.401 166.399  0.00  0.00    +0.000 C 
ATOM    123  O   LEU C  15     155.667 181.353 167.291  0.00  0.00    +0.000 OA
ATOM    124  CB  LEU C  15     155.675 180.790 164.162  0.00  0.00    +0.000 C 
ATOM    125  CG  LEU C  15     155.909 179.888 162.970  0.00  0.00    +0.000 C 
ATOM    126  CD1 LEU C  15     156.875 180.560 162.060  0.00  0.00    +0.000 C 
ATOM    127  CD2 LEU C  15     156.461 178.586 163.424  0.00  0.00    +0.000 C 
ATOM    128  N   NME C  16     153.920 182.376 166.345  0.00  0.00    +0.000 N 
ATOM    129  H   NME C  16     153.285 182.442 165.559  0.00  0.00    +0.000 HD
ATOM    130  C   NME C  16     153.895 183.379 167.391  0.00  0.00    +0.000 C 
TER 
REMARK  Name = /home/xianyang/aimnet2_score_pipelines/work/L1234-fixed-receptor-eint-20260921/L3/Q15878/prepared.pdb
REMARK                            x       y       z     vdW  Elec       q    Type
REMARK                         _______ _______ _______ _____ _____    ______ ____
ATOM      1  CH3 ACE D   1     155.511 167.938 166.388  0.00  0.00    +0.000 C 
ATOM      2  C   ACE D   1     154.030 167.910 166.082  0.00  0.00    +0.000 C 
ATOM      3  O   ACE D   1     153.670 167.444 165.051  0.00  0.00    +0.000 OA
ATOM      4  N   ASN D   2     153.208 168.433 166.944  0.00  0.00    +0.000 N 
ATOM      5  H   ASN D   2     153.550 168.716 167.847  0.00  0.00    +0.000 HD
ATOM      6  CA  ASN D   2     151.781 168.523 166.639  0.00  0.00    +0.000 C 
ATOM      7  C   ASN D   2     151.614 169.857 165.976  0.00  0.00    +0.000 C 
ATOM      8  O   ASN D   2     150.653 170.012 165.287  0.00  0.00    +0.000 OA
ATOM      9  CB  ASN D   2     150.906 168.425 167.882  0.00  0.00    +0.000 C 
ATOM     10  CG  ASN D   2     149.697 169.323 167.922  0.00  0.00    +0.000 C 
ATOM     11  OD1 ASN D   2     148.849 169.278 167.043  0.00  0.00    +0.000 OA
ATOM     12  ND2 ASN D   2     149.586 170.112 168.971  0.00  0.00    +0.000 N 
ATOM     13 HD21 ASN D   2     148.686 170.561 169.061  0.00  0.00    +0.000 HD
ATOM     14 HD22 ASN D   2     150.224 170.060 169.743  0.00  0.00    +0.000 HD
ATOM     15  N   VAL D   3     152.488 170.808 166.232  0.00  0.00    +0.000 N 
ATOM     16  H   VAL D   3     153.239 170.688 166.889  0.00  0.00    +0.000 HD
ATOM     17  CA  VAL D   3     152.292 172.036 165.468  0.00  0.00    +0.000 C 
ATOM     18  C   VAL D   3     152.883 171.903 164.078  0.00  0.00    +0.000 C 
ATOM     19  O   VAL D   3     152.236 172.210 163.073  0.00  0.00    +0.000 OA
ATOM     20  CB  VAL D   3     152.906 173.227 166.212  0.00  0.00    +0.000 C 
ATOM     21  CG1 VAL D   3     153.031 174.387 165.291  0.00  0.00    +0.000 C 
ATOM     22  CG2 VAL D   3     152.070 173.585 167.392  0.00  0.00    +0.000 C 
ATOM     23  N   PHE D   4     154.117 171.445 163.993  0.00  0.00    +0.000 N 
ATOM     24  H   PHE D   4     154.639 171.249 164.830  0.00  0.00    +0.000 HD
ATOM     25  CA  PHE D   4     154.791 171.402 162.713  0.00  0.00    +0.000 C 
ATOM     26  C   PHE D   4     154.367 170.229 161.866  0.00  0.00    +0.000 C 
ATOM     27  O   PHE D   4     154.729 170.187 160.695  0.00  0.00    +0.000 OA
ATOM     28  CB  PHE D   4     156.297 171.376 162.922  0.00  0.00    +0.000 C 
ATOM     29  CG  PHE D   4     156.865 172.703 163.278  0.00  0.00    +0.000 A 
ATOM     30  CD1 PHE D   4     157.008 173.680 162.325  0.00  0.00    +0.000 A 
ATOM     31  CD2 PHE D   4     157.218 172.988 164.563  0.00  0.00    +0.000 A 
ATOM     32  CE1 PHE D   4     157.507 174.897 162.647  0.00  0.00    +0.000 A 
ATOM     33  CE2 PHE D   4     157.725 174.208 164.883  0.00  0.00    +0.000 A 
ATOM     34  CZ  PHE D   4     157.871 175.161 163.923  0.00  0.00    +0.000 A 
ATOM     35  N   LEU D   5     153.623 169.280 162.415  0.00  0.00    +0.000 N 
ATOM     36  H   LEU D   5     153.447 169.286 163.407  0.00  0.00    +0.000 HD
ATOM     37  CA  LEU D   5     153.023 168.239 161.605  0.00  0.00    +0.000 C 
ATOM     38  C   LEU D   5     151.628 168.607 161.182  0.00  0.00    +0.000 C 
ATOM     39  O   LEU D   5     151.218 168.234 160.093  0.00  0.00    +0.000 OA
ATOM     40  CB  LEU D   5     152.988 166.916 162.364  0.00  0.00    +0.000 C 
ATOM     41  CG  LEU D   5     152.767 165.645 161.557  0.00  0.00    +0.000 C 
ATOM     42  CD1 LEU D   5     153.938 165.360 160.695  0.00  0.00    +0.000 C 
ATOM     43  CD2 LEU D   5     152.520 164.480 162.467  0.00  0.00    +0.000 C 
ATOM     44  N   ALA D   6     150.887 169.349 161.994  0.00  0.00    +0.000 N 
ATOM     45  H   ALA D   6     151.211 169.601 162.916  0.00  0.00    +0.000 HD
ATOM     46  CA  ALA D   6     149.623 169.886 161.526  0.00  0.00    +0.000 C 
ATOM     47  C   ALA D   6     149.843 170.798 160.343  0.00  0.00    +0.000 C 
ATOM     48  O   ALA D   6     149.178 170.668 159.320  0.00  0.00    +0.000 OA
ATOM     49  CB  ALA D   6     148.919 170.639 162.644  0.00  0.00    +0.000 C 
ATOM     50  N   ILE D   7     150.801 171.714 160.456  0.00  0.00    +0.000 N 
ATOM     51  H   ILE D   7     151.276 171.826 161.346  0.00  0.00    +0.000 HD
ATOM     52  CA  ILE D   7     151.088 172.635 159.362  0.00  0.00    +0.000 C 
ATOM     53  C   ILE D   7     151.406 171.866 158.092  0.00  0.00    +0.000 C 
ATOM     54  O   ILE D   7     150.838 172.127 157.028  0.00  0.00    +0.000 OA
ATOM     55  CB  ILE D   7     152.247 173.562 159.750  0.00  0.00    +0.000 C 
ATOM     56  CG1 ILE D   7     151.763 174.675 160.653  0.00  0.00    +0.000 C 
ATOM     57  CG2 ILE D   7     152.923 174.109 158.544  0.00  0.00    +0.000 C 
ATOM     58  CD1 ILE D   7     152.880 175.435 161.275  0.00  0.00    +0.000 C 
ATOM     59  N   ALA D   8     152.286 170.881 158.193  0.00  0.00    +0.000 N 
ATOM     60  H   ALA D   8     152.710 170.686 159.088  0.00  0.00    +0.000 HD
ATOM     61  CA  ALA D   8     152.789 170.183 157.025  0.00  0.00    +0.000 C 
ATOM     62  C   ALA D   8     151.839 169.137 156.483  0.00  0.00    +0.000 C 
ATOM     63  O   ALA D   8     151.927 168.813 155.308  0.00  0.00    +0.000 OA
ATOM     64  CB  ALA D   8     154.117 169.519 157.346  0.00  0.00    +0.000 C 
ATOM     65  N   VAL D   9     150.959 168.573 157.295  0.00  0.00    +0.000 N 
ATOM     66  H   VAL D   9     150.963 168.799 158.284  0.00  0.00    +0.000 HD
ATOM     67  CA  VAL D   9     149.962 167.649 156.782  0.00  0.00    +0.000 C 
ATOM     68  C   VAL D   9     148.786 168.395 156.202  0.00  0.00    +0.000 C 
ATOM     69  O   VAL D   9     148.284 168.035 155.145  0.00  0.00    +0.000 OA
ATOM     70  CB  VAL D   9     149.516 166.666 157.873  0.00  0.00    +0.000 C 
ATOM     71  CG1 VAL D   9     148.362 165.890 157.402  0.00  0.00    +0.000 C 
ATOM     72  CG2 VAL D   9     150.596 165.698 158.142  0.00  0.00    +0.000 C 
ATOM     73  N   ASP D  10     148.331 169.449 156.862  0.00  0.00    +0.000 N 
ATOM     74  H   ASP D  10     148.767 169.752 157.727  0.00  0.00    +0.000 HD
ATOM     75  CA  ASP D  10     147.276 170.266 156.298  0.00  0.00    +0.000 C 
ATOM     76  C   ASP D  10     147.701 170.830 154.958  0.00  0.00    +0.000 C 
ATOM     77  O   ASP D  10     147.071 170.560 153.937  0.00  0.00    +0.000 OA
ATOM     78  CB  ASP D  10     146.938 171.380 157.276  0.00  0.00    +0.000 C 
ATOM     79  CG  ASP D  10     145.996 172.396 156.711  0.00  0.00    +0.000 C 
ATOM     80  OD1 ASP D  10     145.505 172.236 155.586  0.00  0.00    +0.000 OA
ATOM     81  OD2 ASP D  10     145.747 173.396 157.400  0.00  0.00    +0.000 OA
ATOM     82  N   ASN D  11     148.754 171.642 154.942  0.00  0.00    +0.000 N 
ATOM     83  H   ASN D  11     149.224 171.858 155.813  0.00  0.00    +0.000 HD
ATOM     84  CA  ASN D  11     149.143 172.342 153.730  0.00  0.00    +0.000 C 
ATOM     85  C   ASN D  11     149.662 171.435 152.654  0.00  0.00    +0.000 C 
ATOM     86  O   ASN D  11     150.097 171.928 151.625  0.00  0.00    +0.000 OA
ATOM     87  CB  ASN D  11     150.201 173.371 154.056  0.00  0.00    +0.000 C 
ATOM     88  CG  ASN D  11     149.724 174.373 155.030  0.00  0.00    +0.000 C 
ATOM     89  OD1 ASN D  11     148.775 175.095 154.772  0.00  0.00    +0.000 OA
ATOM     90  ND2 ASN D  11     150.334 174.396 156.188  0.00  0.00    +0.000 N 
ATOM     91 HD21 ASN D  11     150.965 173.654 156.410  0.00  0.00    +0.000 HD
ATOM     92 HD22 ASN D  11     149.866 174.963 156.869  0.00  0.00    +0.000 HD
ATOM     93  N   LEU D  12     149.649 170.138 152.854  0.00  0.00    +0.000 N 
ATOM     94  H   LEU D  12     149.225 169.789 153.701  0.00  0.00    +0.000 HD
ATOM     95  CA  LEU D  12     150.153 169.211 151.867  0.00  0.00    +0.000 C 
ATOM     96  C   LEU D  12     149.100 168.219 151.417  0.00  0.00    +0.000 C 
ATOM     97  O   LEU D  12     149.101 167.832 150.250  0.00  0.00    +0.000 OA
ATOM     98  CB  LEU D  12     151.372 168.489 152.441  0.00  0.00    +0.000 C 
ATOM     99  CG  LEU D  12     152.311 167.553 151.744  0.00  0.00    +0.000 C 
ATOM    100  CD1 LEU D  12     152.945 168.279 150.642  0.00  0.00    +0.000 C 
ATOM    101  CD2 LEU D  12     153.334 167.271 152.746  0.00  0.00    +0.000 C 
ATOM    102  N   NME D  13     148.158 167.862 152.275  0.00  0.00    +0.000 N 
ATOM    103  H   NME D  13     148.199 168.205 153.230  0.00  0.00    +0.000 HD
ATOM    104  C   NME D  13     146.929 167.267 151.802  0.00  0.00    +0.000 C 
TER 
