REMARK  Name = /data/user_data/xianyang/t3-aimnet-affinity-balanced/L4/Q9Y4K0/pocket.pdb
REMARK                            x       y       z     vdW  Elec       q    Type
REMARK                         _______ _______ _______ _____ _____    ______ ____
ATOM      1  N   HIS A   1     -30.127 -21.387  12.849  0.00  0.00    +0.000 N 
ATOM      2  CA  HIS A   1     -29.447 -21.188  11.575  0.00  0.00    +0.000 C 
ATOM      3  C   HIS A   1     -28.772 -22.456  11.075  0.00  0.00    +0.000 C 
ATOM      4  O   HIS A   1     -28.381 -22.528   9.911  0.00  0.00    +0.000 OA
ATOM      5  CB  HIS A   1     -28.411 -20.063  11.683  0.00  0.00    +0.000 C 
ATOM      6  CG  HIS A   1     -29.007 -18.714  11.949  0.00  0.00    +0.000 A 
ATOM      7  ND1 HIS A   1     -28.255 -17.633  12.357  0.00  0.00    +0.000 N 
ATOM      8  CD2 HIS A   1     -30.280 -18.265  11.855  0.00  0.00    +0.000 A 
ATOM      9  CE1 HIS A   1     -29.037 -16.585  12.503  0.00  0.00    +0.000 A 
ATOM     10  NE2 HIS A   1     -30.271 -16.943  12.207  0.00  0.00    +0.000 NA
ATOM     11  H   HIS A   1     -30.811 -22.138  12.756  0.00  0.00    +0.000 HD
ATOM     12  H   HIS A   1     -30.603 -20.526  13.119  0.00  0.00    +0.000 HD
ATOM     13  H   HIS A   1     -29.443 -21.636  13.564  0.00  0.00    +0.000 HD
ATOM     14  H   HIS A   1     -27.283 -17.644  12.515  0.00  0.00    +0.000 HD
TER 
REMARK  Name = /data/user_data/xianyang/t3-aimnet-affinity-balanced/L4/Q9Y4K0/pocket.pdb
REMARK                            x       y       z     vdW  Elec       q    Type
REMARK                         _______ _______ _______ _____ _____    ______ ____
ATOM      1  N   HIS B   1     -25.849 -23.853  11.650  0.00  0.00    +0.000 N 
ATOM      2  CA  HIS B   1     -24.429 -23.821  11.356  0.00  0.00    +0.000 C 
ATOM      3  C   HIS B   1     -23.720 -23.105  12.486  0.00  0.00    +0.000 C 
ATOM      4  O   HIS B   1     -24.348 -22.567  13.400  0.00  0.00    +0.000 OA
ATOM      5  CB  HIS B   1     -24.136 -23.156   9.999  0.00  0.00    +0.000 C 
ATOM      6  CG  HIS B   1     -24.700 -21.776   9.866  0.00  0.00    +0.000 C 
ATOM      7  ND1 HIS B   1     -25.708 -21.477   8.979  0.00  0.00    +0.000 NA
ATOM      8  CD2 HIS B   1     -24.388 -20.610  10.492  0.00  0.00    +0.000 C 
ATOM      9  CE1 HIS B   1     -25.994 -20.191   9.073  0.00  0.00    +0.000 C 
ATOM     10  NE2 HIS B   1     -25.214 -19.646   9.983  0.00  0.00    +0.000 NA
ATOM     11  H   HIS B   1     -26.341 -24.333  10.897  0.00  0.00    +0.000 HD
ATOM     12  H   HIS B   1     -26.201 -22.899  11.732  0.00  0.00    +0.000 HD
ATOM     13  H   HIS B   1     -26.003 -24.349  12.528  0.00  0.00    +0.000 HD
TER 
REMARK  Name = /data/user_data/xianyang/t3-aimnet-affinity-balanced/L4/Q9Y4K0/pocket.pdb
REMARK                            x       y       z     vdW  Elec       q    Type
REMARK                         _______ _______ _______ _____ _____    ______ ____
ATOM      1  N   HIS C   1     -21.383 -20.201  14.186  0.00  0.00    +0.000 N 
ATOM      2  CA  HIS C   1     -21.009 -18.801  14.101  0.00  0.00    +0.000 C 
ATOM      3  C   HIS C   1     -19.573 -18.659  14.581  0.00  0.00    +0.000 C 
ATOM      4  O   HIS C   1     -19.244 -19.026  15.706  0.00  0.00    +0.000 OA
ATOM      5  CB  HIS C   1     -21.934 -17.925  14.946  0.00  0.00    +0.000 C 
ATOM      6  CG  HIS C   1     -23.326 -17.811  14.401  0.00  0.00    +0.000 C 
ATOM      7  ND1 HIS C   1     -23.631 -18.009  13.072  0.00  0.00    +0.000 NA
ATOM      8  CD2 HIS C   1     -24.495 -17.508  15.017  0.00  0.00    +0.000 C 
ATOM      9  CE1 HIS C   1     -24.932 -17.838  12.908  0.00  0.00    +0.000 C 
ATOM     10  NE2 HIS C   1     -25.473 -17.534  14.061  0.00  0.00    +0.000 NA
ATOM     11  H   HIS C   1     -20.749 -20.758  13.613  0.00  0.00    +0.000 HD
ATOM     12  H   HIS C   1     -22.338 -20.319  13.848  0.00  0.00    +0.000 HD
ATOM     13  H   HIS C   1     -21.325 -20.510  15.156  0.00  0.00    +0.000 HD
TER 
REMARK  Name = /data/user_data/xianyang/t3-aimnet-affinity-balanced/L4/Q9Y4K0/pocket.pdb
REMARK                            x       y       z     vdW  Elec       q    Type
REMARK                         _______ _______ _______ _____ _____    ______ ____
ATOM      1  N   CYS D   1     -22.176 -14.349  12.486  0.00  0.00    +0.000 N 
ATOM      2  CA  CYS D   1     -22.037 -14.728  11.092  0.00  0.00    +0.000 C 
ATOM      3  C   CYS D   1     -21.321 -16.054  10.957  0.00  0.00    +0.000 C 
ATOM      4  O   CYS D   1     -20.399 -16.359  11.713  0.00  0.00    +0.000 OA
ATOM      5  CB  CYS D   1     -21.263 -13.665  10.303  0.00  0.00    +0.000 C 
ATOM      6  CG  CYS D   1     -22.102 -12.508   9.848  0.00  0.00    +0.000 A 
ATOM      7  CD2 CYS D   1     -22.542 -11.555  10.748  0.00  0.00    +0.000 A 
ATOM      8  CD1 CYS D   1     -22.453 -12.378   8.512  0.00  0.00    +0.000 A 
ATOM      9  CE2 CYS D   1     -23.319 -10.487  10.331  0.00  0.00    +0.000 A 
ATOM     10  CE1 CYS D   1     -23.229 -11.311   8.087  0.00  0.00    +0.000 A 
ATOM     11  CZ  CYS D   1     -23.661 -10.367   8.999  0.00  0.00    +0.000 A 
ATOM     12  N   CYS D   2     -21.762 -16.824   9.992  0.00  0.00    +0.000 N 
ATOM     13  CA  CYS D   2     -21.023 -17.971   9.498  0.00  0.00    +0.000 C 
ATOM     14  C   CYS D   2     -20.379 -17.549   8.184  0.00  0.00    +0.000 C 
ATOM     15  O   CYS D   2     -21.075 -17.347   7.185  0.00  0.00    +0.000 OA
ATOM     16  CB  CYS D   2     -21.942 -19.172   9.294  0.00  0.00    +0.000 C 
ATOM     17  SG  CYS D   2     -21.084 -20.665   8.739  0.00  0.00    +0.000 S 
ATOM     18  N   LEU D   3     -19.074 -17.404   8.185  0.00  0.00    +0.000 N 
ATOM     19  CA  LEU D   3     -18.363 -16.826   7.060  0.00  0.00    +0.000 C 
ATOM     20  C   LEU D   3     -18.132 -17.873   5.982  0.00  0.00    +0.000 C 
ATOM     21  O   LEU D   3     -17.572 -18.934   6.243  0.00  0.00    +0.000 OA
ATOM     22  CB  LEU D   3     -17.033 -16.237   7.518  0.00  0.00    +0.000 C 
ATOM     23  CG  LEU D   3     -17.103 -15.218   8.654  0.00  0.00    +0.000 C 
ATOM     24  CD2 LEU D   3     -15.706 -14.787   9.060  0.00  0.00    +0.000 C 
ATOM     25  CD1 LEU D   3     -17.955 -14.028   8.256  0.00  0.00    +0.000 C 
ATOM     26  N   GLU D   4     -18.555 -17.556   4.766  0.00  0.00    +0.000 N 
ATOM     27  CA  GLU D   4     -18.368 -18.454   3.645  0.00  0.00    +0.000 C 
ATOM     28  C   GLU D   4     -18.358 -17.658   2.348  0.00  0.00    +0.000 C 
ATOM     29  O   GLU D   4     -18.825 -16.523   2.289  0.00  0.00    +0.000 OA
ATOM     30  CB  GLU D   4     -19.449 -19.531   3.598  0.00  0.00    +0.000 C 
ATOM     31  CG  GLU D   4     -20.855 -19.024   3.387  0.00  0.00    +0.000 C 
ATOM     32  CD  GLU D   4     -21.870 -20.153   3.336  0.00  0.00    +0.000 C 
ATOM     33  OE1 GLU D   4     -23.062 -19.851   3.098  0.00  0.00    +0.000 OA
ATOM     34  OE2 GLU D   4     -21.497 -21.327   3.520  0.00  0.00    +0.000 OA
ATOM     35  N   CYS D   1     -19.727 -23.238   5.084  0.00  0.00    +0.000 N 
ATOM     36  CA  CYS D   1     -20.095 -23.542   6.461  0.00  0.00    +0.000 C 
ATOM     37  C   CYS D   1     -20.584 -24.967   6.657  0.00  0.00    +0.000 C 
ATOM     38  O   CYS D   1     -20.646 -25.436   7.796  0.00  0.00    +0.000 OA
ATOM     39  CB  CYS D   1     -21.173 -22.569   6.944  0.00  0.00    +0.000 C 
ATOM     40  SG  CYS D   1     -20.621 -20.852   7.053  0.00  0.00    +0.000 S 
ATOM     41  H   CYS D   1     -22.661 -13.454  12.548  0.00  0.00    +0.000 HD
ATOM     42  H   CYS D   1     -21.252 -14.265  12.909  0.00  0.00    +0.000 HD
ATOM     43  H   CYS D   1     -22.713 -15.062  12.980  0.00  0.00    +0.000 HD
ATOM     44  H   CYS D   2     -22.633 -16.615   9.584  0.00  0.00    +0.000 HD
ATOM     45  H   LEU D   3     -18.562 -17.697   8.973  0.00  0.00    +0.000 HD
ATOM     46  H   GLU D   4     -19.005 -16.693   4.622  0.00  0.00    +0.000 HD
ATOM     47  H   CYS D   1     -19.009 -23.891   4.772  0.00  0.00    +0.000 HD
ATOM     48  H   CYS D   1     -19.366 -22.285   5.031  0.00  0.00    +0.000 HD
ATOM     49  H   CYS D   1     -20.548 -23.324   4.486  0.00  0.00    +0.000 HD
TER 
REMARK  Name = /data/user_data/xianyang/t3-aimnet-affinity-balanced/L4/Q9Y4K0/pocket.pdb
REMARK                            x       y       z     vdW  Elec       q    Type
REMARK                         _______ _______ _______ _____ _____    ______ ____
ATOM      1  N   THR E   1     -19.940 -16.981  -0.730  0.00  0.00    +0.000 N 
ATOM      2  CA  THR E   1     -21.156 -17.132  -1.506  0.00  0.00    +0.000 C 
ATOM      3  C   THR E   1     -20.844 -17.117  -2.997  0.00  0.00    +0.000 C 
ATOM      4  O   THR E   1     -21.330 -17.969  -3.754  0.00  0.00    +0.000 OA
ATOM      5  CB  THR E   1     -22.156 -16.024  -1.161  0.00  0.00    +0.000 C 
ATOM      6  OG1 THR E   1     -22.465 -16.083   0.238  0.00  0.00    +0.000 OA
ATOM      7  CG2 THR E   1     -23.430 -16.196  -1.971  0.00  0.00    +0.000 C 
ATOM      8  H   THR E   1     -19.287 -17.726  -0.973  0.00  0.00    +0.000 HD
ATOM      9  H   THR E   1     -20.162 -17.034   0.264  0.00  0.00    +0.000 HD
ATOM     10  H   THR E   1     -19.515 -16.077  -0.936  0.00  0.00    +0.000 HD
ATOM     11  H   THR E   1     -22.858 -16.945   0.446  0.00  0.00    +0.000 HD
TER 
REMARK  Name = /data/user_data/xianyang/t3-aimnet-affinity-balanced/L4/Q9Y4K0/pocket.pdb
REMARK                            x       y       z     vdW  Elec       q    Type
REMARK                         _______ _______ _______ _____ _____    ______ ____
ATOM      1  N   ASP F   1     -19.572 -12.744   1.015  0.00  0.00    +0.000 N 
ATOM      2  CA  ASP F   1     -20.519 -13.522   1.799  0.00  0.00    +0.000 C 
ATOM      3  C   ASP F   1     -21.847 -12.784   1.780  0.00  0.00    +0.000 C 
ATOM      4  O   ASP F   1     -21.911 -11.606   2.128  0.00  0.00    +0.000 OA
ATOM      5  CB  ASP F   1     -20.003 -13.696   3.232  0.00  0.00    +0.000 C 
ATOM      6  CG  ASP F   1     -20.853 -14.656   4.048  0.00  0.00    +0.000 C 
ATOM      7  OD1 ASP F   1     -21.773 -15.283   3.481  0.00  0.00    +0.000 OA
ATOM      8  OD2 ASP F   1     -20.587 -14.790   5.263  0.00  0.00    +0.000 OA
ATOM      9  N   MET F   2     -22.885 -13.481   1.371  0.00  0.00    +0.000 N 
ATOM     10  CA  MET F   2     -24.208 -12.889   1.242  0.00  0.00    +0.000 C 
ATOM     11  C   MET F   2     -25.089 -13.355   2.387  0.00  0.00    +0.000 C 
ATOM     12  O   MET F   2     -25.351 -14.551   2.524  0.00  0.00    +0.000 OA
ATOM     13  CB  MET F   2     -24.844 -13.260  -0.096  0.00  0.00    +0.000 C 
ATOM     14  CG  MET F   2     -26.301 -12.833  -0.228  0.00  0.00    +0.000 C 
ATOM     15  SD  MET F   2     -26.500 -11.053  -0.385  0.00  0.00    +0.000 S 
ATOM     16  CE  MET F   2     -25.898 -10.838  -2.064  0.00  0.00    +0.000 C 
ATOM     17  N   TYR F   3     -25.536 -12.424   3.202  0.00  0.00    +0.000 N 
ATOM     18  CA  TYR F   3     -26.574 -12.672   4.190  0.00  0.00    +0.000 C 
ATOM     19  C   TYR F   3     -27.877 -12.146   3.615  0.00  0.00    +0.000 C 
ATOM     20  O   TYR F   3     -28.127 -10.940   3.595  0.00  0.00    +0.000 OA
ATOM     21  CB  TYR F   3     -26.250 -12.004   5.526  0.00  0.00    +0.000 C 
ATOM     22  CG  TYR F   3     -25.435 -12.877   6.444  0.00  0.00    +0.000 A 
ATOM     23  CD1 TYR F   3     -24.190 -13.358   6.056  0.00  0.00    +0.000 A 
ATOM     24  CD2 TYR F   3     -25.909 -13.231   7.703  0.00  0.00    +0.000 A 
ATOM     25  CE1 TYR F   3     -23.442 -14.172   6.897  0.00  0.00    +0.000 A 
ATOM     26  CE2 TYR F   3     -25.167 -14.037   8.549  0.00  0.00    +0.000 A 
ATOM     27  CZ  TYR F   3     -23.938 -14.502   8.142  0.00  0.00    +0.000 A 
ATOM     28  OH  TYR F   3     -23.195 -15.299   8.975  0.00  0.00    +0.000 OA
ATOM     29  N   ARG F   4     -28.681 -13.057   3.139  0.00  0.00    +0.000 N 
ATOM     30  CA  ARG F   4     -29.884 -12.687   2.420  0.00  0.00    +0.000 C 
ATOM     31  C   ARG F   4     -30.942 -12.134   3.359  0.00  0.00    +0.000 C 
ATOM     32  O   ARG F   4     -30.967 -12.434   4.554  0.00  0.00    +0.000 OA
ATOM     33  CB  ARG F   4     -30.432 -13.887   1.644  0.00  0.00    +0.000 C 
ATOM     34  CG  ARG F   4     -29.475 -14.412   0.578  0.00  0.00    +0.000 C 
ATOM     35  CD  ARG F   4     -30.027 -15.631  -0.137  0.00  0.00    +0.000 C 
ATOM     36  NE  ARG F   4     -31.242 -15.337  -0.883  0.00  0.00    +0.000 N 
ATOM     37  CZ  ARG F   4     -32.415 -15.918  -0.688  0.00  0.00    +0.000 C 
ATOM     38  NH2 ARG F   4     -32.540 -16.854   0.240  0.00  0.00    +0.000 N 
ATOM     39  NH1 ARG F   4     -33.455 -15.575  -1.430  0.00  0.00    +0.000 N 
ATOM     40  H   ASP F   1     -19.926 -12.635   0.065  0.00  0.00    +0.000 HD
ATOM     41  H   ASP F   1     -18.674 -13.227   0.990  0.00  0.00    +0.000 HD
ATOM     42  H   ASP F   1     -19.452 -11.825   1.441  0.00  0.00    +0.000 HD
ATOM     43  H   MET F   2     -22.763 -14.432   1.145  0.00  0.00    +0.000 HD
ATOM     44  H   TYR F   3     -25.151 -11.520   3.140  0.00  0.00    +0.000 HD
ATOM     45  H   TYR F   3     -22.358 -15.615   8.697  0.00  0.00    +0.000 HD
ATOM     46  H   ARG F   4     -28.467 -14.009   3.270  0.00  0.00    +0.000 HD
ATOM     47  H   ARG F   4     -31.187 -14.652  -1.588  0.00  0.00    +0.000 HD
ATOM     48  H   ARG F   4     -33.411 -17.288   0.387  0.00  0.00    +0.000 HD
ATOM     49  H   ARG F   4     -31.762 -17.116   0.783  0.00  0.00    +0.000 HD
ATOM     50  H   ARG F   4     -33.360 -14.879  -2.119  0.00  0.00    +0.000 HD
ATOM     51  H   ARG F   4     -34.324 -16.016  -1.293  0.00  0.00    +0.000 HD
TER 
REMARK  Name = /data/user_data/xianyang/t3-aimnet-affinity-balanced/L4/Q9Y4K0/pocket.pdb
REMARK                            x       y       z     vdW  Elec       q    Type
REMARK                         _______ _______ _______ _____ _____    ______ ____
ATOM      1  N   ILE G   1     -33.034 -14.466   5.686  0.00  0.00    +0.000 N 
ATOM      2  CA  ILE G   1     -32.357 -15.256   6.702  0.00  0.00    +0.000 C 
ATOM      3  C   ILE G   1     -32.697 -14.695   8.076  0.00  0.00    +0.000 C 
ATOM      4  O   ILE G   1     -32.856 -13.488   8.252  0.00  0.00    +0.000 OA
ATOM      5  CB  ILE G   1     -30.835 -15.263   6.466  0.00  0.00    +0.000 C 
ATOM      6  CG1 ILE G   1     -30.520 -16.012   5.170  0.00  0.00    +0.000 C 
ATOM      7  CG2 ILE G   1     -30.096 -15.896   7.631  0.00  0.00    +0.000 C 
ATOM      8  CD1 ILE G   1     -29.060 -15.961   4.771  0.00  0.00    +0.000 C 
ATOM      9  H   ILE G   1     -32.811 -14.837   4.762  0.00  0.00    +0.000 HD
ATOM     10  H   ILE G   1     -32.724 -13.496   5.747  0.00  0.00    +0.000 HD
ATOM     11  H   ILE G   1     -34.042 -14.511   5.836  0.00  0.00    +0.000 HD
TER 
