REMARK  Name = /home/xianyang/aimnet2_score_pipelines/work/L1234-fixed-receptor-eint-20260921/L1/Q86WV6/prepared.pdb
REMARK                            x       y       z     vdW  Elec       q    Type
REMARK                         _______ _______ _______ _____ _____    ______ ____
ATOM      1  CH3 ACE A   1      11.196  16.088  24.443  0.00  0.00    +0.000 C 
ATOM      2  C   ACE A   1      12.692  16.027  24.696  0.00  0.00    +0.000 C 
ATOM      3  O   ACE A   1      13.166  15.036  25.238  0.00  0.00    +0.000 OA
ATOM      4  N   HIS A   2      13.429  17.093  24.329  0.00  0.00    +0.000 N 
ATOM      5  H   HIS A   2      12.974  17.843  23.833  0.00  0.00    +0.000 HD
ATOM      6  CA  HIS A   2      14.882  17.173  24.538  0.00  0.00    +0.000 C 
ATOM      7  C   HIS A   2      15.198  17.089  26.041  0.00  0.00    +0.000 C 
ATOM      8  O   HIS A   2      16.012  16.255  26.450  0.00  0.00    +0.000 OA
ATOM      9  CB  HIS A   2      15.428  18.476  23.908  0.00  0.00    +0.000 C 
ATOM     10  CG  HIS A   2      16.864  18.749  24.199  0.00  0.00    +0.000 A 
ATOM     11  ND1 HIS A   2      17.869  18.114  23.507  0.00  0.00    +0.000 N 
ATOM     12  HD1 HIS A   2      17.772  17.439  22.765  0.00  0.00    +0.000 HD
ATOM     13  CD2 HIS A   2      17.414  19.637  25.053  0.00  0.00    +0.000 A 
ATOM     14  CE1 HIS A   2      18.997  18.614  23.973  0.00  0.00    +0.000 A 
ATOM     15  NE2 HIS A   2      18.771  19.529  24.908  0.00  0.00    +0.000 NA
ATOM     16  N   GLY A   3      14.511  17.923  26.837  0.00  0.00    +0.000 N 
ATOM     17  H   GLY A   3      13.899  18.588  26.393  0.00  0.00    +0.000 HD
ATOM     18  CA  GLY A   3      14.603  17.939  28.292  0.00  0.00    +0.000 C 
ATOM     19  C   GLY A   3      14.189  16.621  28.929  0.00  0.00    +0.000 C 
ATOM     20  O   GLY A   3      14.858  16.150  29.861  0.00  0.00    +0.000 OA
ATOM     21  N   LEU A   4      13.073  16.022  28.446  0.00  0.00    +0.000 N 
ATOM     22  H   LEU A   4      12.604  16.422  27.651  0.00  0.00    +0.000 HD
ATOM     23  CA  LEU A   4      12.605  14.735  28.976  0.00  0.00    +0.000 C 
ATOM     24  C   LEU A   4      13.622  13.606  28.806  0.00  0.00    +0.000 C 
ATOM     25  O   LEU A   4      13.775  12.801  29.726  0.00  0.00    +0.000 OA
ATOM     26  CB  LEU A   4      11.251  14.312  28.373  0.00  0.00    +0.000 C 
ATOM     27  CG  LEU A   4      10.053  15.258  28.627  0.00  0.00    +0.000 C 
ATOM     28  CD1 LEU A   4       8.774  14.662  28.064  0.00  0.00    +0.000 C 
ATOM     29  CD2 LEU A   4       9.899  15.586  30.091  0.00  0.00    +0.000 C 
ATOM     30  N   ALA A   5      14.262  13.523  27.616  0.00  0.00    +0.000 N 
ATOM     31  H   ALA A   5      14.017  14.179  26.882  0.00  0.00    +0.000 HD
ATOM     32  CA  ALA A   5      15.261  12.485  27.305  0.00  0.00    +0.000 C 
ATOM     33  C   ALA A   5      16.518  12.679  28.170  0.00  0.00    +0.000 C 
ATOM     34  O   ALA A   5      17.027  11.707  28.715  0.00  0.00    +0.000 OA
ATOM     35  CB  ALA A   5      15.613  12.507  25.822  0.00  0.00    +0.000 C 
ATOM     36  N   TRP A   6      16.991  13.927  28.323  0.00  0.00    +0.000 N 
ATOM     37  H   TRP A   6      16.565  14.687  27.805  0.00  0.00    +0.000 HD
ATOM     38  CA  TRP A   6      18.148  14.224  29.199  0.00  0.00    +0.000 C 
ATOM     39  C   TRP A   6      17.826  13.880  30.657  0.00  0.00    +0.000 C 
ATOM     40  O   TRP A   6      18.652  13.308  31.359  0.00  0.00    +0.000 OA
ATOM     41  CB  TRP A   6      18.568  15.704  29.080  0.00  0.00    +0.000 C 
ATOM     42  CG  TRP A   6      19.560  15.884  27.976  0.00  0.00    +0.000 A 
ATOM     43  CD1 TRP A   6      19.293  16.153  26.662  0.00  0.00    +0.000 A 
ATOM     44  CD2 TRP A   6      20.967  15.600  28.051  0.00  0.00    +0.000 A 
ATOM     45  NE1 TRP A   6      20.458  16.122  25.926  0.00  0.00    +0.000 N 
ATOM     46  HE1 TRP A   6      20.521  16.323  24.942  0.00  0.00    +0.000 HD
ATOM     47  CE2 TRP A   6      21.500  15.768  26.751  0.00  0.00    +0.000 A 
ATOM     48  CE3 TRP A   6      21.827  15.207  29.095  0.00  0.00    +0.000 A 
ATOM     49  CZ2 TRP A   6      22.868  15.628  26.478  0.00  0.00    +0.000 A 
ATOM     50  CZ3 TRP A   6      23.177  15.007  28.812  0.00  0.00    +0.000 A 
ATOM     51  CH2 TRP A   6      23.680  15.196  27.513  0.00  0.00    +0.000 A 
ATOM     52  N   SER A   7      16.596  14.157  31.084  0.00  0.00    +0.000 N 
ATOM     53  H   SER A   7      15.961  14.672  30.483  0.00  0.00    +0.000 HD
ATOM     54  CA  SER A   7      16.208  13.848  32.433  0.00  0.00    +0.000 C 
ATOM     55  C   SER A   7      16.018  12.343  32.670  0.00  0.00    +0.000 C 
ATOM     56  O   SER A   7      16.322  11.852  33.755  0.00  0.00    +0.000 OA
ATOM     57  CB  SER A   7      14.966  14.638  32.808  0.00  0.00    +0.000 C 
ATOM     58  OG  SER A   7      14.844  14.724  34.216  0.00  0.00    +0.000 OA
ATOM     59  HG  SER A   7      15.701  15.027  34.564  0.00  0.00    +0.000 HD
ATOM     60  N   TYR A   8      15.501  11.631  31.671  0.00  0.00    +0.000 N 
ATOM     61  H   TYR A   8      15.177  12.117  30.842  0.00  0.00    +0.000 HD
ATOM     62  CA  TYR A   8      15.312  10.176  31.749  0.00  0.00    +0.000 C 
ATOM     63  C   TYR A   8      16.699   9.516  31.890  0.00  0.00    +0.000 C 
ATOM     64  O   TYR A   8      16.883   8.572  32.664  0.00  0.00    +0.000 OA
ATOM     65  CB  TYR A   8      14.569   9.674  30.505  0.00  0.00    +0.000 C 
ATOM     66  CG  TYR A   8      14.241   8.192  30.533  0.00  0.00    +0.000 A 
ATOM     67  CD1 TYR A   8      13.424   7.651  31.533  0.00  0.00    +0.000 A 
ATOM     68  CD2 TYR A   8      14.665   7.348  29.511  0.00  0.00    +0.000 A 
ATOM     69  CE1 TYR A   8      13.075   6.296  31.530  0.00  0.00    +0.000 A 
ATOM     70  CE2 TYR A   8      14.293   5.999  29.480  0.00  0.00    +0.000 A 
ATOM     71  CZ  TYR A   8      13.513   5.474  30.499  0.00  0.00    +0.000 A 
ATOM     72  OH  TYR A   8      13.190   4.133  30.476  0.00  0.00    +0.000 OA
ATOM     73  HH  TYR A   8      12.915   3.769  31.327  0.00  0.00    +0.000 HD
ATOM     74  N   TYR A   9      17.679  10.068  31.196  0.00  0.00    +0.000 N 
ATOM     75  H   TYR A   9      17.480  10.813  30.536  0.00  0.00    +0.000 HD
ATOM     76  CA  TYR A   9      19.036   9.522  31.305  0.00  0.00    +0.000 C 
ATOM     77  C   TYR A   9      19.699   9.925  32.650  0.00  0.00    +0.000 C 
ATOM     78  O   TYR A   9      20.142   9.042  33.385  0.00  0.00    +0.000 OA
ATOM     79  CB  TYR A   9      19.899   9.904  30.093  0.00  0.00    +0.000 C 
ATOM     80  CG  TYR A   9      21.361   9.567  30.329  0.00  0.00    +0.000 A 
ATOM     81  CD1 TYR A   9      21.829   8.265  30.183  0.00  0.00    +0.000 A 
ATOM     82  CD2 TYR A   9      22.257  10.536  30.767  0.00  0.00    +0.000 A 
ATOM     83  CE1 TYR A   9      23.165   7.941  30.441  0.00  0.00    +0.000 A 
ATOM     84  CE2 TYR A   9      23.590  10.222  31.043  0.00  0.00    +0.000 A 
ATOM     85  CZ  TYR A   9      24.038   8.923  30.889  0.00  0.00    +0.000 A 
ATOM     86  OH  TYR A   9      25.362   8.628  31.153  0.00  0.00    +0.000 OA
ATOM     87  HH  TYR A   9      25.937   9.381  30.998  0.00  0.00    +0.000 HD
ATOM     88  N   ILE A  10      19.783  11.245  32.957  0.00  0.00    +0.000 N 
ATOM     89  H   ILE A  10      19.389  11.921  32.307  0.00  0.00    +0.000 HD
ATOM     90  CA  ILE A  10      20.423  11.744  34.191  0.00  0.00    +0.000 C 
ATOM     91  C   ILE A  10      19.758  11.211  35.470  0.00  0.00    +0.000 C 
ATOM     92  O   ILE A  10      20.448  10.787  36.412  0.00  0.00    +0.000 OA
ATOM     93  CB  ILE A  10      20.520  13.317  34.205  0.00  0.00    +0.000 C 
ATOM     94  CG1 ILE A  10      21.419  13.871  33.054  0.00  0.00    +0.000 C 
ATOM     95  CG2 ILE A  10      20.953  13.884  35.589  0.00  0.00    +0.000 C 
ATOM     96  CD1 ILE A  10      22.991  13.425  33.072  0.00  0.00    +0.000 C 
ATOM     97  N   GLY A  11      18.429  11.254  35.485  0.00  0.00    +0.000 N 
ATOM     98  H   GLY A  11      17.934  11.592  34.664  0.00  0.00    +0.000 HD
ATOM     99  CA  GLY A  11      17.630  10.900  36.642  0.00  0.00    +0.000 C 
ATOM    100  C   GLY A  11      17.276   9.443  36.824  0.00  0.00    +0.000 C 
ATOM    101  O   GLY A  11      16.756   9.084  37.880  0.00  0.00    +0.000 OA
ATOM    102  N   TYR A  12      17.553   8.599  35.831  0.00  0.00    +0.000 N 
ATOM    103  H   TYR A  12      17.932   8.955  34.964  0.00  0.00    +0.000 HD
ATOM    104  CA  TYR A  12      17.186   7.182  35.928  0.00  0.00    +0.000 C 
ATOM    105  C   TYR A  12      18.195   6.218  35.297  0.00  0.00    +0.000 C 
ATOM    106  O   TYR A  12      18.816   5.438  36.037  0.00  0.00    +0.000 OA
ATOM    107  CB  TYR A  12      15.757   6.963  35.343  0.00  0.00    +0.000 C 
ATOM    108  CG  TYR A  12      15.278   5.523  35.400  0.00  0.00    +0.000 A 
ATOM    109  CD1 TYR A  12      15.184   4.846  36.615  0.00  0.00    +0.000 A 
ATOM    110  CD2 TYR A  12      14.911   4.843  34.243  0.00  0.00    +0.000 A 
ATOM    111  CE1 TYR A  12      14.709   3.534  36.678  0.00  0.00    +0.000 A 
ATOM    112  CE2 TYR A  12      14.415   3.536  34.296  0.00  0.00    +0.000 A 
ATOM    113  CZ  TYR A  12      14.337   2.881  35.515  0.00  0.00    +0.000 A 
ATOM    114  OH  TYR A  12      13.868   1.591  35.577  0.00  0.00    +0.000 OA
ATOM    115  HH  TYR A  12      14.349   0.980  36.132  0.00  0.00    +0.000 HD
ATOM    116  N   LEU A  13      18.342   6.242  33.950  0.00  0.00    +0.000 N 
ATOM    117  H   LEU A  13      17.792   6.915  33.424  0.00  0.00    +0.000 HD
ATOM    118  CA  LEU A  13      19.216   5.300  33.215  0.00  0.00    +0.000 C 
ATOM    119  C   LEU A  13      20.680   5.291  33.690  0.00  0.00    +0.000 C 
ATOM    120  O   LEU A  13      21.223   4.217  33.944  0.00  0.00    +0.000 OA
ATOM    121  CB  LEU A  13      19.144   5.506  31.702  0.00  0.00    +0.000 C 
ATOM    122  CG  LEU A  13      17.792   5.249  30.998  0.00  0.00    +0.000 C 
ATOM    123  CD1 LEU A  13      17.964   5.375  29.477  0.00  0.00    +0.000 C 
ATOM    124  CD2 LEU A  13      17.184   3.892  31.387  0.00  0.00    +0.000 C 
ATOM    125  N   ARG A  14      21.282   6.482  33.866  0.00  0.00    +0.000 N 
ATOM    126  H   ARG A  14      20.745   7.312  33.628  0.00  0.00    +0.000 HD
ATOM    127  CA  ARG A  14      22.649   6.690  34.369  0.00  0.00    +0.000 C 
ATOM    128  C   ARG A  14      22.837   6.010  35.758  0.00  0.00    +0.000 C 
ATOM    129  O   ARG A  14      23.940   5.578  36.068  0.00  0.00    +0.000 OA
ATOM    130  CB  ARG A  14      22.901   8.223  34.470  0.00  0.00    +0.000 C 
ATOM    131  CG  ARG A  14      24.101   8.688  35.264  0.00  0.00    +0.000 C 
ATOM    132  CD  ARG A  14      24.159  10.200  35.371  0.00  0.00    +0.000 C 
ATOM    133  NE  ARG A  14      23.235  10.762  36.365  0.00  0.00    +0.000 N 
ATOM    134  HE  ARG A  14      22.271  10.909  36.091  0.00  0.00    +0.000 HD
ATOM    135  CZ  ARG A  14      23.494  10.902  37.666  0.00  0.00    +0.000 C 
ATOM    136  NH1 ARG A  14      24.661  10.495  38.170  0.00  0.00    +0.000 N 
ATOM    137 HH11 ARG A  14      25.307  10.031  37.557  0.00  0.00    +0.000 HD
ATOM    138 HH12 ARG A  14      24.840  10.544  39.154  0.00  0.00    +0.000 HD
ATOM    139  NH2 ARG A  14      22.586  11.438  38.476  0.00  0.00    +0.000 N 
ATOM    140 HH21 ARG A  14      22.790  11.637  39.432  0.00  0.00    +0.000 HD
ATOM    141 HH22 ARG A  14      21.665  11.584  38.086  0.00  0.00    +0.000 HD
ATOM    142  N   LEU A  15      21.755   5.899  36.565  0.00  0.00    +0.000 N 
ATOM    143  H   LEU A  15      20.859   6.175  36.192  0.00  0.00    +0.000 HD
ATOM    144  CA  LEU A  15      21.789   5.339  37.908  0.00  0.00    +0.000 C 
ATOM    145  C   LEU A  15      21.515   3.825  37.988  0.00  0.00    +0.000 C 
ATOM    146  O   LEU A  15      22.017   3.170  38.906  0.00  0.00    +0.000 OA
ATOM    147  CB  LEU A  15      20.836   6.129  38.828  0.00  0.00    +0.000 C 
ATOM    148  CG  LEU A  15      21.164   7.647  38.939  0.00  0.00    +0.000 C 
ATOM    149  CD1 LEU A  15      19.978   8.431  39.437  0.00  0.00    +0.000 C 
ATOM    150  CD2 LEU A  15      22.426   7.895  39.816  0.00  0.00    +0.000 C 
ATOM    151  N   ILE A  16      20.757   3.265  37.043  0.00  0.00    +0.000 N 
ATOM    152  H   ILE A  16      20.330   3.856  36.341  0.00  0.00    +0.000 HD
ATOM    153  CA  ILE A  16      20.454   1.825  37.075  0.00  0.00    +0.000 C 
ATOM    154  C   ILE A  16      21.279   0.978  36.108  0.00  0.00    +0.000 C 
ATOM    155  O   ILE A  16      21.556  -0.177  36.431  0.00  0.00    +0.000 OA
ATOM    156  CB  ILE A  16      18.940   1.523  36.893  0.00  0.00    +0.000 C 
ATOM    157  CG1 ILE A  16      18.385   2.047  35.543  0.00  0.00    +0.000 C 
ATOM    158  CG2 ILE A  16      18.145   2.052  38.073  0.00  0.00    +0.000 C 
ATOM    159  CD1 ILE A  16      17.304   1.176  34.931  0.00  0.00    +0.000 C 
ATOM    160  N   NME A  17      21.615   1.498  34.916  0.00  0.00    +0.000 N 
ATOM    161  H   NME A  17      21.398   2.471  34.724  0.00  0.00    +0.000 HD
ATOM    162  C   NME A  17      22.296   0.704  33.881  0.00  0.00    +0.000 C 
TER 
REMARK  Name = /home/xianyang/aimnet2_score_pipelines/work/L1234-fixed-receptor-eint-20260921/L1/Q86WV6/prepared.pdb
REMARK                            x       y       z     vdW  Elec       q    Type
REMARK                         _______ _______ _______ _____ _____    ______ ____
ATOM      1  CH3 ACE B   1      20.508   3.777  46.668  0.00  0.00    +0.000 C 
ATOM      2  C   ACE B   1      19.940   4.998  47.356  0.00  0.00    +0.000 C 
ATOM      3  O   ACE B   1      18.758   5.293  47.208  0.00  0.00    +0.000 OA
ATOM      4  N   ASP B   2      20.778   5.719  48.097  0.00  0.00    +0.000 N 
ATOM      5  H   ASP B   2      21.718   5.393  48.244  0.00  0.00    +0.000 HD
ATOM      6  CA  ASP B   2      20.379   6.980  48.713  0.00  0.00    +0.000 C 
ATOM      7  C   ASP B   2      20.306   7.973  47.581  0.00  0.00    +0.000 C 
ATOM      8  O   ASP B   2      21.277   8.139  46.839  0.00  0.00    +0.000 OA
ATOM      9  CB  ASP B   2      21.388   7.444  49.790  0.00  0.00    +0.000 C 
ATOM     10  CG  ASP B   2      21.415   6.543  51.011  0.00  0.00    +0.000 C 
ATOM     11  OD1 ASP B   2      20.427   5.807  51.231  0.00  0.00    +0.000 OA
ATOM     12  OD2 ASP B   2      22.401   6.605  51.768  0.00  0.00    +0.000 OA
ATOM     13  N   ARG B   3      19.126   8.559  47.387  0.00  0.00    +0.000 N 
ATOM     14  H   ARG B   3      18.347   8.295  47.990  0.00  0.00    +0.000 HD
ATOM     15  CA  ARG B   3      18.913   9.445  46.257  0.00  0.00    +0.000 C 
ATOM     16  C   ARG B   3      18.129  10.667  46.664  0.00  0.00    +0.000 C 
ATOM     17  O   ARG B   3      16.953  10.561  47.007  0.00  0.00    +0.000 OA
ATOM     18  CB  ARG B   3      18.206   8.659  45.102  0.00  0.00    +0.000 C 
ATOM     19  CG  ARG B   3      17.795   9.492  43.886  0.00  0.00    +0.000 C 
ATOM     20  CD  ARG B   3      18.947   9.775  42.963  0.00  0.00    +0.000 C 
ATOM     21  NE  ARG B   3      18.516  10.605  41.839  0.00  0.00    +0.000 N 
ATOM     22  HE  ARG B   3      17.623  10.406  41.420  0.00  0.00    +0.000 HD
ATOM     23  CZ  ARG B   3      19.268  11.535  41.270  0.00  0.00    +0.000 C 
ATOM     24  NH1 ARG B   3      20.489  11.771  41.718  0.00  0.00    +0.000 N 
ATOM     25 HH11 ARG B   3      20.859  11.235  42.478  0.00  0.00    +0.000 HD
ATOM     26 HH12 ARG B   3      20.980  12.551  41.299  0.00  0.00    +0.000 HD
ATOM     27  NH2 ARG B   3      18.806  12.232  40.240  0.00  0.00    +0.000 N 
ATOM     28 HH21 ARG B   3      17.911  12.024  39.836  0.00  0.00    +0.000 HD
ATOM     29 HH22 ARG B   3      19.406  12.950  39.852  0.00  0.00    +0.000 HD
ATOM     30  N   ALA B   4      18.772  11.842  46.587  0.00  0.00    +0.000 N 
ATOM     31  H   ALA B   4      19.746  11.815  46.335  0.00  0.00    +0.000 HD
ATOM     32  CA  ALA B   4      18.180  13.154  46.853  0.00  0.00    +0.000 C 
ATOM     33  C   ALA B   4      17.363  13.221  48.144  0.00  0.00    +0.000 C 
ATOM     34  O   ALA B   4      16.253  13.753  48.147  0.00  0.00    +0.000 OA
ATOM     35  CB  ALA B   4      17.318  13.567  45.672  0.00  0.00    +0.000 C 
ATOM     36  N   GLY B   5      17.913  12.660  49.221  0.00  0.00    +0.000 N 
ATOM     37  H   GLY B   5      18.811  12.213  49.135  0.00  0.00    +0.000 HD
ATOM     38  CA  GLY B   5      17.254  12.655  50.520  0.00  0.00    +0.000 C 
ATOM     39  C   GLY B   5      16.361  11.455  50.746  0.00  0.00    +0.000 C 
ATOM     40  O   GLY B   5      15.851  11.281  51.846  0.00  0.00    +0.000 OA
ATOM     41  N   ILE B   6      16.135  10.634  49.716  0.00  0.00    +0.000 N 
ATOM     42  H   ILE B   6      16.477  10.868  48.793  0.00  0.00    +0.000 HD
ATOM     43  CA  ILE B   6      15.342   9.420  49.858  0.00  0.00    +0.000 C 
ATOM     44  C   ILE B   6      16.364   8.325  50.222  0.00  0.00    +0.000 C 
ATOM     45  O   ILE B   6      17.185   7.947  49.381  0.00  0.00    +0.000 OA
ATOM     46  CB  ILE B   6      14.523   9.041  48.575  0.00  0.00    +0.000 C 
ATOM     47  CG1 ILE B   6      13.532  10.161  48.146  0.00  0.00    +0.000 C 
ATOM     48  CG2 ILE B   6      13.816   7.693  48.777  0.00  0.00    +0.000 C 
ATOM     49  CD1 ILE B   6      12.992  10.046  46.744  0.00  0.00    +0.000 C 
ATOM     50  N   LYS B   7      16.330   7.847  51.481  0.00  0.00    +0.000 N 
ATOM     51  H   LYS B   7      15.601   8.179  52.092  0.00  0.00    +0.000 HD
ATOM     52  CA  LYS B   7      17.202   6.760  51.945  0.00  0.00    +0.000 C 
ATOM     53  C   LYS B   7      16.722   5.469  51.267  0.00  0.00    +0.000 C 
ATOM     54  O   LYS B   7      15.512   5.232  51.230  0.00  0.00    +0.000 OA
ATOM     55  CB  LYS B   7      17.064   6.603  53.478  0.00  0.00    +0.000 C 
ATOM     56  CG  LYS B   7      18.373   6.755  54.228  0.00  0.00    +0.000 C 
ATOM     57  CD  LYS B   7      18.813   8.187  54.301  0.00  0.00    +0.000 C 
ATOM     58  CE  LYS B   7      20.200   8.228  54.865  0.00  0.00    +0.000 C 
ATOM     59  NZ  LYS B   7      20.344   9.397  55.733  0.00  0.00    +0.000 N 
ATOM     60  HZ1 LYS B   7      21.282   9.421  56.113  0.00  0.00    +0.000 HD
ATOM     61  HZ2 LYS B   7      20.191  10.243  55.201  0.00  0.00    +0.000 HD
ATOM     62  HZ3 LYS B   7      19.678   9.354  56.493  0.00  0.00    +0.000 HD
ATOM     63  N   ASP B   8      17.656   4.664  50.716  0.00  0.00    +0.000 N 
ATOM     64  H   ASP B   8      18.641   4.880  50.883  0.00  0.00    +0.000 HD
ATOM     65  CA  ASP B   8      17.334   3.405  50.032  0.00  0.00    +0.000 C 
ATOM     66  C   ASP B   8      16.195   3.539  49.019  0.00  0.00    +0.000 C 
ATOM     67  O   ASP B   8      15.184   2.821  49.109  0.00  0.00    +0.000 OA
ATOM     68  CB  ASP B   8      17.049   2.255  51.036  0.00  0.00    +0.000 C 
ATOM     69  CG  ASP B   8      18.072   2.093  52.135  0.00  0.00    +0.000 C 
ATOM     70  OD1 ASP B   8      19.279   2.204  51.838  0.00  0.00    +0.000 OA
ATOM     71  OD2 ASP B   8      17.662   1.858  53.293  0.00  0.00    +0.000 OA
ATOM     72  N   ARG B   9      16.327   4.517  48.096  0.00  0.00    +0.000 N 
ATOM     73  H   ARG B   9      17.201   5.036  48.088  0.00  0.00    +0.000 HD
ATOM     74  CA  ARG B   9      15.390   4.704  46.991  0.00  0.00    +0.000 C 
ATOM     75  C   ARG B   9      15.453   3.365  46.223  0.00  0.00    +0.000 C 
ATOM     76  O   ARG B   9      16.545   2.895  45.880  0.00  0.00    +0.000 OA
ATOM     77  CB  ARG B   9      15.839   5.889  46.081  0.00  0.00    +0.000 C 
ATOM     78  CG  ARG B   9      14.781   6.385  45.069  0.00  0.00    +0.000 C 
ATOM     79  CD  ARG B   9      14.575   5.439  43.875  0.00  0.00    +0.000 C 
ATOM     80  NE  ARG B   9      14.155   6.152  42.667  0.00  0.00    +0.000 N 
ATOM     81  HE  ARG B   9      14.473   7.101  42.571  0.00  0.00    +0.000 HD
ATOM     82  CZ  ARG B   9      13.445   5.624  41.676  0.00  0.00    +0.000 C 
ATOM     83  NH1 ARG B   9      13.030   4.361  41.740  0.00  0.00    +0.000 N 
ATOM     84 HH11 ARG B   9      12.560   3.932  40.969  0.00  0.00    +0.000 HD
ATOM     85 HH12 ARG B   9      13.277   3.775  42.534  0.00  0.00    +0.000 HD
ATOM     86  NH2 ARG B   9      13.120   6.358  40.625  0.00  0.00    +0.000 N 
ATOM     87 HH21 ARG B   9      13.479   7.295  40.543  0.00  0.00    +0.000 HD
ATOM     88 HH22 ARG B   9      12.675   5.925  39.836  0.00  0.00    +0.000 HD
ATOM     89  N   VAL B  10      14.286   2.736  46.019  0.00  0.00    +0.000 N 
ATOM     90  H   VAL B  10      13.460   3.121  46.452  0.00  0.00    +0.000 HD
ATOM     91  CA  VAL B  10      14.212   1.418  45.373  0.00  0.00    +0.000 C 
ATOM     92  C   VAL B  10      13.983   1.499  43.862  0.00  0.00    +0.000 C 
ATOM     93  O   VAL B  10      13.045   2.147  43.403  0.00  0.00    +0.000 OA
ATOM     94  CB  VAL B  10      13.154   0.497  46.061  0.00  0.00    +0.000 C 
ATOM     95  CG1 VAL B  10      13.036  -0.864  45.355  0.00  0.00    +0.000 C 
ATOM     96  CG2 VAL B  10      13.453   0.297  47.542  0.00  0.00    +0.000 C 
ATOM     97  N   TYR B  11      14.808   0.768  43.108  0.00  0.00    +0.000 N 
ATOM     98  H   TYR B  11      15.549   0.257  43.568  0.00  0.00    +0.000 HD
ATOM     99  CA  TYR B  11      14.682   0.590  41.672  0.00  0.00    +0.000 C 
ATOM    100  C   TYR B  11      14.298  -0.858  41.433  0.00  0.00    +0.000 C 
ATOM    101  O   TYR B  11      15.090  -1.775  41.660  0.00  0.00    +0.000 OA
ATOM    102  CB  TYR B  11      15.970   0.925  40.920  0.00  0.00    +0.000 C 
ATOM    103  CG  TYR B  11      16.497   2.314  41.176  0.00  0.00    +0.000 A 
ATOM    104  CD1 TYR B  11      16.051   3.403  40.425  0.00  0.00    +0.000 A 
ATOM    105  CD2 TYR B  11      17.450   2.547  42.162  0.00  0.00    +0.000 A 
ATOM    106  CE1 TYR B  11      16.564   4.684  40.635  0.00  0.00    +0.000 A 
ATOM    107  CE2 TYR B  11      17.932   3.830  42.416  0.00  0.00    +0.000 A 
ATOM    108  CZ  TYR B  11      17.496   4.895  41.642  0.00  0.00    +0.000 A 
ATOM    109  OH  TYR B  11      18.001   6.145  41.893  0.00  0.00    +0.000 OA
ATOM    110  HH  TYR B  11      18.799   6.068  42.429  0.00  0.00    +0.000 HD
ATOM    111  N   SER B  12      13.044  -1.066  41.057  0.00  0.00    +0.000 N 
ATOM    112  H   SER B  12      12.484  -0.288  40.748  0.00  0.00    +0.000 HD
ATOM    113  CA  SER B  12      12.550  -2.399  40.753  0.00  0.00    +0.000 C 
ATOM    114  C   SER B  12      12.342  -2.554  39.238  0.00  0.00    +0.000 C 
ATOM    115  O   SER B  12      11.950  -1.588  38.568  0.00  0.00    +0.000 OA
ATOM    116  CB  SER B  12      11.274  -2.690  41.536  0.00  0.00    +0.000 C 
ATOM    117  OG  SER B  12      10.287  -1.691  41.386  0.00  0.00    +0.000 OA
ATOM    118  HG  SER B  12      10.653  -0.891  41.761  0.00  0.00    +0.000 HD
ATOM    119  N   NME B  13      12.696  -3.731  38.688  0.00  0.00    +0.000 N 
ATOM    120  H   NME B  13      13.060  -4.452  39.289  0.00  0.00    +0.000 HD
ATOM    121  C   NME B  13      12.518  -4.041  37.266  0.00  0.00    +0.000 C 
TER 
REMARK  Name = /home/xianyang/aimnet2_score_pipelines/work/L1234-fixed-receptor-eint-20260921/L1/Q86WV6/prepared.pdb
REMARK                            x       y       z     vdW  Elec       q    Type
REMARK                         _______ _______ _______ _____ _____    ______ ____
ATOM      1  CH3 ACE C   1      13.968  -7.169  31.475  0.00  0.00    +0.000 C 
ATOM      2  C   ACE C   1      13.334  -6.118  30.544  0.00  0.00    +0.000 C 
ATOM      3  O   ACE C   1      13.945  -5.703  29.558  0.00  0.00    +0.000 OA
ATOM      4  N   LEU C   2      12.083  -5.758  30.822  0.00  0.00    +0.000 N 
ATOM      5  H   LEU C   2      11.646  -6.067  31.676  0.00  0.00    +0.000 HD
ATOM      6  CA  LEU C   2      11.307  -4.919  29.930  0.00  0.00    +0.000 C 
ATOM      7  C   LEU C   2      10.445  -3.901  30.667  0.00  0.00    +0.000 C 
ATOM      8  O   LEU C   2       9.826  -4.218  31.690  0.00  0.00    +0.000 OA
ATOM      9  CB  LEU C   2      10.410  -5.883  29.101  0.00  0.00    +0.000 C 
ATOM     10  CG  LEU C   2       9.598  -5.375  27.902  0.00  0.00    +0.000 C 
ATOM     11  CD1 LEU C   2      10.511  -4.935  26.754  0.00  0.00    +0.000 C 
ATOM     12  CD2 LEU C   2       8.704  -6.498  27.379  0.00  0.00    +0.000 C 
ATOM     13  N   GLU C   3      10.378  -2.686  30.104  0.00  0.00    +0.000 N 
ATOM     14  H   GLU C   3      10.959  -2.477  29.306  0.00  0.00    +0.000 HD
ATOM     15  CA  GLU C   3       9.528  -1.584  30.588  0.00  0.00    +0.000 C 
ATOM     16  C   GLU C   3       9.371  -0.477  29.540  0.00  0.00    +0.000 C 
ATOM     17  O   GLU C   3      10.189  -0.353  28.627  0.00  0.00    +0.000 OA
ATOM     18  CB  GLU C   3      10.060  -0.996  31.919  0.00  0.00    +0.000 C 
ATOM     19  CG  GLU C   3      11.420  -0.329  31.824  0.00  0.00    +0.000 C 
ATOM     20  CD  GLU C   3      12.142  -0.117  33.135  0.00  0.00    +0.000 C 
ATOM     21  OE1 GLU C   3      12.520   1.042  33.417  0.00  0.00    +0.000 OA
ATOM     22  OE2 GLU C   3      12.306  -1.096  33.898  0.00  0.00    +0.000 OA
ATOM     23  N   TYR C   4       8.355   0.382  29.730  0.00  0.00    +0.000 N 
ATOM     24  H   TYR C   4       7.796   0.280  30.570  0.00  0.00    +0.000 HD
ATOM     25  CA  TYR C   4       8.156   1.552  28.897  0.00  0.00    +0.000 C 
ATOM     26  C   TYR C   4       8.963   2.724  29.465  0.00  0.00    +0.000 C 
ATOM     27  O   TYR C   4       9.081   2.853  30.690  0.00  0.00    +0.000 OA
ATOM     28  CB  TYR C   4       6.668   1.967  28.931  0.00  0.00    +0.000 C 
ATOM     29  CG  TYR C   4       5.752   1.046  28.164  0.00  0.00    +0.000 A 
ATOM     30  CD1 TYR C   4       5.532   1.227  26.801  0.00  0.00    +0.000 A 
ATOM     31  CD2 TYR C   4       5.103  -0.011  28.796  0.00  0.00    +0.000 A 
ATOM     32  CE1 TYR C   4       4.702   0.368  26.078  0.00  0.00    +0.000 A 
ATOM     33  CE2 TYR C   4       4.242  -0.859  28.090  0.00  0.00    +0.000 A 
ATOM     34  CZ  TYR C   4       4.058  -0.675  26.727  0.00  0.00    +0.000 A 
ATOM     35  OH  TYR C   4       3.214  -1.504  26.025  0.00  0.00    +0.000 OA
ATOM     36  HH  TYR C   4       2.842  -2.196  26.574  0.00  0.00    +0.000 HD
ATOM     37  N   ALA C   5       9.433   3.625  28.580  0.00  0.00    +0.000 N 
ATOM     38  H   ALA C   5       9.312   3.444  27.598  0.00  0.00    +0.000 HD
ATOM     39  CA  ALA C   5      10.053   4.896  28.973  0.00  0.00    +0.000 C 
ATOM     40  C   ALA C   5       8.865   5.788  29.407  0.00  0.00    +0.000 C 
ATOM     41  O   ALA C   5       8.090   6.264  28.575  0.00  0.00    +0.000 OA
ATOM     42  CB  ALA C   5      10.782   5.527  27.791  0.00  0.00    +0.000 C 
ATOM     43  N   THR C   6       8.670   5.920  30.716  0.00  0.00    +0.000 N 
ATOM     44  H   THR C   6       9.302   5.434  31.341  0.00  0.00    +0.000 HD
ATOM     45  CA  THR C   6       7.571   6.688  31.341  0.00  0.00    +0.000 C 
ATOM     46  C   THR C   6       7.469   8.181  30.870  0.00  0.00    +0.000 C 
ATOM     47  O   THR C   6       6.343   8.661  30.820  0.00  0.00    +0.000 OA
ATOM     48  CB  THR C   6       7.639   6.561  32.846  0.00  0.00    +0.000 C 
ATOM     49  OG1 THR C   6       9.007   6.733  33.254  0.00  0.00    +0.000 OA
ATOM     50  HG1 THR C   6       9.042   6.827  34.212  0.00  0.00    +0.000 HD
ATOM     51  CG2 THR C   6       7.092   5.186  33.331  0.00  0.00    +0.000 C 
ATOM     52  N   PRO C   7       8.553   8.908  30.463  0.00  0.00    +0.000 N 
ATOM     53  CA  PRO C   7       8.363  10.310  29.985  0.00  0.00    +0.000 C 
ATOM     54  C   PRO C   7       7.466  10.432  28.735  0.00  0.00    +0.000 C 
ATOM     55  O   PRO C   7       6.888  11.496  28.509  0.00  0.00    +0.000 OA
ATOM     56  CB  PRO C   7       9.793  10.784  29.678  0.00  0.00    +0.000 C 
ATOM     57  CG  PRO C   7      10.667   9.923  30.527  0.00  0.00    +0.000 C 
ATOM     58  CD  PRO C   7       9.988   8.563  30.516  0.00  0.00    +0.000 C 
ATOM     59  N   LEU C   8       7.316   9.339  27.944  0.00  0.00    +0.000 N 
ATOM     60  H   LEU C   8       7.800   8.482  28.182  0.00  0.00    +0.000 HD
ATOM     61  CA  LEU C   8       6.410   9.333  26.799  0.00  0.00    +0.000 C 
ATOM     62  C   LEU C   8       4.948   9.545  27.277  0.00  0.00    +0.000 C 
ATOM     63  O   LEU C   8       4.193  10.236  26.605  0.00  0.00    +0.000 OA
ATOM     64  CB  LEU C   8       6.526   8.022  25.983  0.00  0.00    +0.000 C 
ATOM     65  CG  LEU C   8       7.813   7.882  25.124  0.00  0.00    +0.000 C 
ATOM     66  CD1 LEU C   8       7.891   6.521  24.483  0.00  0.00    +0.000 C 
ATOM     67  CD2 LEU C   8       8.001   9.042  24.124  0.00  0.00    +0.000 C 
ATOM     68  N   GLN C   9       4.589   9.027  28.486  0.00  0.00    +0.000 N 
ATOM     69  H   GLN C   9       5.286   8.554  29.047  0.00  0.00    +0.000 HD
ATOM     70  CA  GLN C   9       3.250   9.267  29.057  0.00  0.00    +0.000 C 
ATOM     71  C   GLN C   9       3.097  10.747  29.442  0.00  0.00    +0.000 C 
ATOM     72  O   GLN C   9       1.973  11.278  29.462  0.00  0.00    +0.000 OA
ATOM     73  CB  GLN C   9       2.971   8.357  30.264  0.00  0.00    +0.000 C 
ATOM     74  CG  GLN C   9       1.587   8.664  30.884  0.00  0.00    +0.000 C 
ATOM     75  CD  GLN C   9       1.217   7.663  31.906  0.00  0.00    +0.000 C 
ATOM     76  OE1 GLN C   9       1.628   7.765  33.043  0.00  0.00    +0.000 OA
ATOM     77  NE2 GLN C   9       0.453   6.657  31.512  0.00  0.00    +0.000 N 
ATOM     78 HE21 GLN C   9       0.154   6.616  30.549  0.00  0.00    +0.000 HD
ATOM     79 HE22 GLN C   9       0.132   5.973  32.169  0.00  0.00    +0.000 HD
ATOM     80  N   THR C  10       4.223  11.436  29.750  0.00  0.00    +0.000 N 
ATOM     81  H   THR C  10       5.131  10.994  29.723  0.00  0.00    +0.000 HD
ATOM     82  CA  THR C  10       4.126  12.869  30.044  0.00  0.00    +0.000 C 
ATOM     83  C   THR C  10       3.704  13.610  28.770  0.00  0.00    +0.000 C 
ATOM     84  O   THR C  10       2.896  14.535  28.860  0.00  0.00    +0.000 OA
ATOM     85  CB  THR C  10       5.446  13.448  30.606  0.00  0.00    +0.000 C 
ATOM     86  OG1 THR C  10       5.743  12.793  31.834  0.00  0.00    +0.000 OA
ATOM     87  HG1 THR C  10       6.642  13.064  32.087  0.00  0.00    +0.000 HD
ATOM     88  CG2 THR C  10       5.384  14.993  30.769  0.00  0.00    +0.000 C 
ATOM     89  N   LEU C  11       4.265  13.234  27.602  0.00  0.00    +0.000 N 
ATOM     90  H   LEU C  11       4.930  12.472  27.604  0.00  0.00    +0.000 HD
ATOM     91  CA  LEU C  11       3.875  13.851  26.323  0.00  0.00    +0.000 C 
ATOM     92  C   LEU C  11       2.382  13.603  26.040  0.00  0.00    +0.000 C 
ATOM     93  O   LEU C  11       1.687  14.500  25.574  0.00  0.00    +0.000 OA
ATOM     94  CB  LEU C  11       4.710  13.285  25.168  0.00  0.00    +0.000 C 
ATOM     95  CG  LEU C  11       6.215  13.624  25.177  0.00  0.00    +0.000 C 
ATOM     96  CD1 LEU C  11       6.893  12.940  24.014  0.00  0.00    +0.000 C 
ATOM     97  CD2 LEU C  11       6.466  15.160  25.130  0.00  0.00    +0.000 C 
ATOM     98  N   NME C  12       1.908  12.377  26.297  0.00  0.00    +0.000 N 
ATOM     99  H   NME C  12       2.554  11.684  26.652  0.00  0.00    +0.000 HD
ATOM    100  C   NME C  12       0.493  12.031  26.142  0.00  0.00    +0.000 C 
TER 
REMARK  Name = /home/xianyang/aimnet2_score_pipelines/work/L1234-fixed-receptor-eint-20260921/L1/Q86WV6/prepared.pdb
REMARK                            x       y       z     vdW  Elec       q    Type
REMARK                         _______ _______ _______ _____ _____    ______ ____
ATOM      1  CH3 ACE D   1      11.904  23.342  32.750  0.00  0.00    +0.000 C 
ATOM      2  C   ACE D   1      10.397  23.115  32.748  0.00  0.00    +0.000 C 
ATOM      3  O   ACE D   1       9.908  22.473  33.664  0.00  0.00    +0.000 OA
ATOM      4  N   HIS D   2       9.681  23.624  31.729  0.00  0.00    +0.000 N 
ATOM      5  H   HIS D   2      10.162  24.198  31.055  0.00  0.00    +0.000 HD
ATOM      6  CA  HIS D   2       8.229  23.464  31.588  0.00  0.00    +0.000 C 
ATOM      7  C   HIS D   2       7.873  21.959  31.492  0.00  0.00    +0.000 C 
ATOM      8  O   HIS D   2       7.032  21.462  32.252  0.00  0.00    +0.000 OA
ATOM      9  CB  HIS D   2       7.719  24.258  30.373  0.00  0.00    +0.000 C 
ATOM     10  CG  HIS D   2       6.261  24.039  30.057  0.00  0.00    +0.000 A 
ATOM     11  ND1 HIS D   2       5.252  24.676  30.776  0.00  0.00    +0.000 N 
ATOM     12  HD1 HIS D   2       5.359  25.335  31.531  0.00  0.00    +0.000 HD
ATOM     13  CD2 HIS D   2       5.696  23.292  29.083  0.00  0.00    +0.000 A 
ATOM     14  CE1 HIS D   2       4.114  24.278  30.231  0.00  0.00    +0.000 A 
ATOM     15  NE2 HIS D   2       4.332  23.445  29.208  0.00  0.00    +0.000 NA
ATOM     16  N   GLY D   3       8.552  21.259  30.593  0.00  0.00    +0.000 N 
ATOM     17  H   GLY D   3       9.190  21.761  29.997  0.00  0.00    +0.000 HD
ATOM     18  CA  GLY D   3       8.421  19.813  30.413  0.00  0.00    +0.000 C 
ATOM     19  C   GLY D   3       8.829  19.011  31.641  0.00  0.00    +0.000 C 
ATOM     20  O   GLY D   3       8.158  18.032  31.998  0.00  0.00    +0.000 OA
ATOM     21  N   LEU D   4       9.938  19.405  32.304  0.00  0.00    +0.000 N 
ATOM     22  H   LEU D   4      10.416  20.241  32.012  0.00  0.00    +0.000 HD
ATOM     23  CA  LEU D   4      10.395  18.714  33.517  0.00  0.00    +0.000 C 
ATOM     24  C   LEU D   4       9.379  18.792  34.671  0.00  0.00    +0.000 C 
ATOM     25  O   LEU D   4       9.195  17.813  35.378  0.00  0.00    +0.000 OA
ATOM     26  CB  LEU D   4      11.761  19.219  34.007  0.00  0.00    +0.000 C 
ATOM     27  CG  LEU D   4      12.956  19.067  33.078  0.00  0.00    +0.000 C 
ATOM     28  CD1 LEU D   4      14.234  19.555  33.770  0.00  0.00    +0.000 C 
ATOM     29  CD2 LEU D   4      13.106  17.631  32.558  0.00  0.00    +0.000 C 
ATOM     30  N   ALA D   5       8.747  19.970  34.865  0.00  0.00    +0.000 N 
ATOM     31  H   ALA D   5       9.006  20.769  34.297  0.00  0.00    +0.000 HD
ATOM     32  CA  ALA D   5       7.744  20.167  35.912  0.00  0.00    +0.000 C 
ATOM     33  C   ALA D   5       6.486  19.344  35.610  0.00  0.00    +0.000 C 
ATOM     34  O   ALA D   5       5.972  18.700  36.506  0.00  0.00    +0.000 OA
ATOM     35  CB  ALA D   5       7.409  21.646  36.041  0.00  0.00    +0.000 C 
ATOM     36  N   TRP D   6       6.016  19.343  34.357  0.00  0.00    +0.000 N 
ATOM     37  H   TRP D   6       6.448  19.948  33.667  0.00  0.00    +0.000 HD
ATOM     38  CA  TRP D   6       4.848  18.522  33.955  0.00  0.00    +0.000 C 
ATOM     39  C   TRP D   6       5.154  17.038  34.135  0.00  0.00    +0.000 C 
ATOM     40  O   TRP D   6       4.308  16.281  34.591  0.00  0.00    +0.000 OA
ATOM     41  CB  TRP D   6       4.452  18.810  32.499  0.00  0.00    +0.000 C 
ATOM     42  CG  TRP D   6       3.476  19.944  32.421  0.00  0.00    +0.000 A 
ATOM     43  CD1 TRP D   6       3.754  21.279  32.311  0.00  0.00    +0.000 A 
ATOM     44  CD2 TRP D   6       2.063  19.844  32.670  0.00  0.00    +0.000 A 
ATOM     45  NE1 TRP D   6       2.572  22.007  32.355  0.00  0.00    +0.000 N 
ATOM     46  HE1 TRP D   6       2.507  23.004  32.241  0.00  0.00    +0.000 HD
ATOM     47  CE2 TRP D   6       1.534  21.151  32.630  0.00  0.00    +0.000 A 
ATOM     48  CE3 TRP D   6       1.197  18.769  32.950  0.00  0.00    +0.000 A 
ATOM     49  CZ2 TRP D   6       0.166  21.407  32.829  0.00  0.00    +0.000 A 
ATOM     50  CZ3 TRP D   6      -0.167  19.027  33.107  0.00  0.00    +0.000 A 
ATOM     51  CH2 TRP D   6      -0.664  20.327  33.033  0.00  0.00    +0.000 A 
ATOM     52  N   SER D   7       6.385  16.630  33.809  0.00  0.00    +0.000 N 
ATOM     53  H   SER D   7       7.027  17.286  33.375  0.00  0.00    +0.000 HD
ATOM     54  CA  SER D   7       6.765  15.232  33.947  0.00  0.00    +0.000 C 
ATOM     55  C   SER D   7       6.926  14.816  35.411  0.00  0.00    +0.000 C 
ATOM     56  O   SER D   7       6.518  13.719  35.775  0.00  0.00    +0.000 OA
ATOM     57  CB  SER D   7       8.008  14.935  33.093  0.00  0.00    +0.000 C 
ATOM     58  OG  SER D   7       8.154  13.549  32.781  0.00  0.00    +0.000 OA
ATOM     59  HG  SER D   7       8.462  13.098  33.570  0.00  0.00    +0.000 HD
ATOM     60  N   TYR D   8       7.482  15.706  36.260  0.00  0.00    +0.000 N 
ATOM     61  H   TYR D   8       7.845  16.578  35.888  0.00  0.00    +0.000 HD
ATOM     62  CA  TYR D   8       7.624  15.465  37.689  0.00  0.00    +0.000 C 
ATOM     63  C   TYR D   8       6.225  15.279  38.305  0.00  0.00    +0.000 C 
ATOM     64  O   TYR D   8       6.024  14.407  39.157  0.00  0.00    +0.000 OA
ATOM     65  CB  TYR D   8       8.369  16.630  38.353  0.00  0.00    +0.000 C 
ATOM     66  CG  TYR D   8       8.685  16.430  39.813  0.00  0.00    +0.000 A 
ATOM     67  CD1 TYR D   8       9.500  15.382  40.234  0.00  0.00    +0.000 A 
ATOM     68  CD2 TYR D   8       8.258  17.345  40.768  0.00  0.00    +0.000 A 
ATOM     69  CE1 TYR D   8       9.829  15.217  41.575  0.00  0.00    +0.000 A 
ATOM     70  CE2 TYR D   8       8.615  17.213  42.112  0.00  0.00    +0.000 A 
ATOM     71  CZ  TYR D   8       9.388  16.140  42.509  0.00  0.00    +0.000 A 
ATOM     72  OH  TYR D   8       9.704  15.988  43.825  0.00  0.00    +0.000 OA
ATOM     73  HH  TYR D   8       9.321  16.665  44.402  0.00  0.00    +0.000 HD
ATOM     74  N   TYR D   9       5.261  16.058  37.823  0.00  0.00    +0.000 N 
ATOM     75  H   TYR D   9       5.482  16.802  37.168  0.00  0.00    +0.000 HD
ATOM     76  CA  TYR D   9       3.897  15.887  38.316  0.00  0.00    +0.000 C 
ATOM     77  C   TYR D   9       3.262  14.585  37.774  0.00  0.00    +0.000 C 
ATOM     78  O   TYR D   9       2.913  13.703  38.556  0.00  0.00    +0.000 OA
ATOM     79  CB  TYR D   9       3.027  17.109  38.006  0.00  0.00    +0.000 C 
ATOM     80  CG  TYR D   9       1.589  16.884  38.426  0.00  0.00    +0.000 A 
ATOM     81  CD1 TYR D   9       1.215  16.936  39.771  0.00  0.00    +0.000 A 
ATOM     82  CD2 TYR D   9       0.612  16.562  37.487  0.00  0.00    +0.000 A 
ATOM     83  CE1 TYR D   9      -0.100  16.679  40.168  0.00  0.00    +0.000 A 
ATOM     84  CE2 TYR D   9      -0.707  16.314  37.871  0.00  0.00    +0.000 A 
ATOM     85  CZ  TYR D   9      -1.055  16.358  39.215  0.00  0.00    +0.000 A 
ATOM     86  OH  TYR D   9      -2.359  16.116  39.581  0.00  0.00    +0.000 OA
ATOM     87  HH  TYR D   9      -2.530  16.362  40.492  0.00  0.00    +0.000 HD
ATOM     88  N   ILE D  10       3.139  14.467  36.453  0.00  0.00    +0.000 N 
ATOM     89  H   ILE D  10       3.498  15.224  35.878  0.00  0.00    +0.000 HD
ATOM     90  CA  ILE D  10       2.516  13.312  35.755  0.00  0.00    +0.000 C 
ATOM     91  C   ILE D  10       3.160  11.969  36.114  0.00  0.00    +0.000 C 
ATOM     92  O   ILE D  10       2.444  10.987  36.321  0.00  0.00    +0.000 OA
ATOM     93  CB  ILE D  10       2.467  13.526  34.203  0.00  0.00    +0.000 C 
ATOM     94  CG1 ILE D  10       1.614  14.763  33.817  0.00  0.00    +0.000 C 
ATOM     95  CG2 ILE D  10       2.041  12.239  33.384  0.00  0.00    +0.000 C 
ATOM     96  CD1 ILE D  10       0.082  14.825  34.346  0.00  0.00    +0.000 C 
ATOM     97  N   GLY D  11       4.490  11.940  36.132  0.00  0.00    +0.000 N 
ATOM     98  H   GLY D  11       4.997  12.798  35.939  0.00  0.00    +0.000 HD
ATOM     99  CA  GLY D  11       5.271  10.728  36.361  0.00  0.00    +0.000 C 
ATOM    100  C   GLY D  11       5.603  10.356  37.786  0.00  0.00    +0.000 C 
ATOM    101  O   GLY D  11       6.110   9.259  38.027  0.00  0.00    +0.000 OA
ATOM    102  N   TYR D  12       5.326  11.244  38.738  0.00  0.00    +0.000 N 
ATOM    103  H   TYR D  12       4.943  12.146  38.486  0.00  0.00    +0.000 HD
ATOM    104  CA  TYR D  12       5.675  10.987  40.128  0.00  0.00    +0.000 C 
ATOM    105  C   TYR D  12       4.652  11.509  41.152  0.00  0.00    +0.000 C 
ATOM    106  O   TYR D  12       4.014  10.692  41.824  0.00  0.00    +0.000 OA
ATOM    107  CB  TYR D  12       7.103  11.548  40.429  0.00  0.00    +0.000 C 
ATOM    108  CG  TYR D  12       7.578  11.300  41.843  0.00  0.00    +0.000 A 
ATOM    109  CD1 TYR D  12       7.671  10.004  42.353  0.00  0.00    +0.000 A 
ATOM    110  CD2 TYR D  12       7.924  12.359  42.678  0.00  0.00    +0.000 A 
ATOM    111  CE1 TYR D  12       8.134   9.768  43.641  0.00  0.00    +0.000 A 
ATOM    112  CE2 TYR D  12       8.403  12.136  43.969  0.00  0.00    +0.000 A 
ATOM    113  CZ  TYR D  12       8.483  10.837  44.455  0.00  0.00    +0.000 A 
ATOM    114  OH  TYR D  12       8.995  10.587  45.702  0.00  0.00    +0.000 OA
ATOM    115  HH  TYR D  12       9.456  11.371  46.095  0.00  0.00    +0.000 HD
ATOM    116  N   LEU D  13       4.511  12.856  41.286  0.00  0.00    +0.000 N 
ATOM    117  H   LEU D  13       5.074  13.453  40.686  0.00  0.00    +0.000 HD
ATOM    118  CA  LEU D  13       3.641  13.482  42.272  0.00  0.00    +0.000 C 
ATOM    119  C   LEU D  13       2.172  13.021  42.209  0.00  0.00    +0.000 C 
ATOM    120  O   LEU D  13       1.615  12.659  43.242  0.00  0.00    +0.000 OA
ATOM    121  CB  LEU D  13       3.721  15.011  42.227  0.00  0.00    +0.000 C 
ATOM    122  CG  LEU D  13       5.094  15.665  42.605  0.00  0.00    +0.000 C 
ATOM    123  CD1 LEU D  13       4.931  17.194  42.703  0.00  0.00    +0.000 C 
ATOM    124  CD2 LEU D  13       5.685  15.100  43.929  0.00  0.00    +0.000 C 
ATOM    125  N   ARG D  14       1.584  12.998  40.997  0.00  0.00    +0.000 N 
ATOM    126  H   ARG D  14       2.148  13.312  40.212  0.00  0.00    +0.000 HD
ATOM    127  CA  ARG D  14       0.206  12.544  40.706  0.00  0.00    +0.000 C 
ATOM    128  C   ARG D  14      -0.012  11.088  41.225  0.00  0.00    +0.000 C 
ATOM    129  O   ARG D  14      -1.122  10.731  41.597  0.00  0.00    +0.000 OA
ATOM    130  CB  ARG D  14      -0.010  12.613  39.170  0.00  0.00    +0.000 C 
ATOM    131  CG  ARG D  14      -1.250  11.894  38.613  0.00  0.00    +0.000 C 
ATOM    132  CD  ARG D  14      -1.323  11.951  37.102  0.00  0.00    +0.000 C 
ATOM    133  NE  ARG D  14      -0.381  11.041  36.441  0.00  0.00    +0.000 N 
ATOM    134  HE  ARG D  14       0.572  11.353  36.296  0.00  0.00    +0.000 HD
ATOM    135  CZ  ARG D  14      -0.634   9.769  36.138  0.00  0.00    +0.000 C 
ATOM    136  NH1 ARG D  14      -1.797   9.214  36.473  0.00  0.00    +0.000 N 
ATOM    137 HH11 ARG D  14      -2.040   8.292  36.159  0.00  0.00    +0.000 HD
ATOM    138 HH12 ARG D  14      -2.428   9.752  37.042  0.00  0.00    +0.000 HD
ATOM    139  NH2 ARG D  14       0.282   9.034  35.523  0.00  0.00    +0.000 N 
ATOM    140 HH21 ARG D  14       1.191   9.457  35.383  0.00  0.00    +0.000 HD
ATOM    141 HH22 ARG D  14       0.040   8.149  35.117  0.00  0.00    +0.000 HD
ATOM    142  N   LEU D  15       1.056  10.273  41.255  0.00  0.00    +0.000 N 
ATOM    143  H   LEU D  15       1.958  10.670  41.038  0.00  0.00    +0.000 HD
ATOM    144  CA  LEU D  15       1.005   8.871  41.643  0.00  0.00    +0.000 C 
ATOM    145  C   LEU D  15       1.253   8.599  43.135  0.00  0.00    +0.000 C 
ATOM    146  O   LEU D  15       0.733   7.620  43.657  0.00  0.00    +0.000 OA
ATOM    147  CB  LEU D  15       1.956   8.039  40.759  0.00  0.00    +0.000 C 
ATOM    148  CG  LEU D  15       1.650   8.115  39.244  0.00  0.00    +0.000 C 
ATOM    149  CD1 LEU D  15       2.840   7.684  38.427  0.00  0.00    +0.000 C 
ATOM    150  CD2 LEU D  15       0.409   7.285  38.877  0.00  0.00    +0.000 C 
ATOM    151  N   ILE D  16       2.011   9.466  43.825  0.00  0.00    +0.000 N 
ATOM    152  H   ILE D  16       2.458  10.229  43.334  0.00  0.00    +0.000 HD
ATOM    153  CA  ILE D  16       2.313   9.244  45.234  0.00  0.00    +0.000 C 
ATOM    154  C   ILE D  16       1.495  10.105  46.189  0.00  0.00    +0.000 C 
ATOM    155  O   ILE D  16       1.210   9.636  47.285  0.00  0.00    +0.000 OA
ATOM    156  CB  ILE D  16       3.839   9.360  45.559  0.00  0.00    +0.000 C 
ATOM    157  CG1 ILE D  16       4.415  10.770  45.236  0.00  0.00    +0.000 C 
ATOM    158  CG2 ILE D  16       4.621   8.256  44.892  0.00  0.00    +0.000 C 
ATOM    159  CD1 ILE D  16       5.487  11.226  46.190  0.00  0.00    +0.000 C 
ATOM    160  N   NME D  17       1.173  11.363  45.823  0.00  0.00    +0.000 N 
ATOM    161  H   NME D  17       1.406  11.676  44.886  0.00  0.00    +0.000 HD
ATOM    162  C   NME D  17       0.505  12.294  46.728  0.00  0.00    +0.000 C 
TER 
REMARK  Name = /home/xianyang/aimnet2_score_pipelines/work/L1234-fixed-receptor-eint-20260921/L1/Q86WV6/prepared.pdb
REMARK                            x       y       z     vdW  Elec       q    Type
REMARK                         _______ _______ _______ _____ _____    ______ ____
ATOM      1  CH3 ACE E   1       2.140   0.007  42.128  0.00  0.00    +0.000 C 
ATOM      2  C   ACE E   1       2.711  -0.527  40.842  0.00  0.00    +0.000 C 
ATOM      3  O   ACE E   1       3.903  -0.366  40.582  0.00  0.00    +0.000 OA
ATOM      4  N   ASP E   2       1.867  -1.156  40.023  0.00  0.00    +0.000 N 
ATOM      5  H   ASP E   2       0.919  -1.315  40.319  0.00  0.00    +0.000 HD
ATOM      6  CA  ASP E   2       2.271  -1.624  38.692  0.00  0.00    +0.000 C 
ATOM      7  C   ASP E   2       2.394  -0.373  37.852  0.00  0.00    +0.000 C 
ATOM      8  O   ASP E   2       1.450   0.410  37.774  0.00  0.00    +0.000 OA
ATOM      9  CB  ASP E   2       1.238  -2.590  38.094  0.00  0.00    +0.000 C 
ATOM     10  CG  ASP E   2       1.175  -3.919  38.807  0.00  0.00    +0.000 C 
ATOM     11  OD1 ASP E   2       2.143  -4.260  39.512  0.00  0.00    +0.000 OA
ATOM     12  OD2 ASP E   2       0.182  -4.639  38.617  0.00  0.00    +0.000 OA
ATOM     13  N   ARG E   3       3.590  -0.130  37.326  0.00  0.00    +0.000 N 
ATOM     14  H   ARG E   3       4.354  -0.775  37.529  0.00  0.00    +0.000 HD
ATOM     15  CA  ARG E   3       3.835   1.096  36.584  0.00  0.00    +0.000 C 
ATOM     16  C   ARG E   3       4.646   0.829  35.323  0.00  0.00    +0.000 C 
ATOM     17  O   ARG E   3       5.819   0.442  35.408  0.00  0.00    +0.000 OA
ATOM     18  CB  ARG E   3       4.562   2.120  37.509  0.00  0.00    +0.000 C 
ATOM     19  CG  ARG E   3       5.013   3.416  36.836  0.00  0.00    +0.000 C 
ATOM     20  CD  ARG E   3       3.885   4.396  36.665  0.00  0.00    +0.000 C 
ATOM     21  NE  ARG E   3       4.334   5.621  35.998  0.00  0.00    +0.000 N 
ATOM     22  HE  ARG E   3       5.212   6.020  36.284  0.00  0.00    +0.000 HD
ATOM     23  CZ  ARG E   3       3.601   6.295  35.118  0.00  0.00    +0.000 C 
ATOM     24  NH1 ARG E   3       2.390   5.866  34.789  0.00  0.00    +0.000 N 
ATOM     25 HH11 ARG E   3       1.878   6.414  34.110  0.00  0.00    +0.000 HD
ATOM     26 HH12 ARG E   3       2.013   5.045  35.221  0.00  0.00    +0.000 HD
ATOM     27  NH2 ARG E   3       4.076   7.401  34.557  0.00  0.00    +0.000 N 
ATOM     28 HH21 ARG E   3       4.960   7.788  34.827  0.00  0.00    +0.000 HD
ATOM     29 HH22 ARG E   3       3.495   7.865  33.868  0.00  0.00    +0.000 HD
ATOM     30  N   ALA E   4       4.018   1.062  34.154  0.00  0.00    +0.000 N 
ATOM     31  H   ALA E   4       3.049   1.331  34.197  0.00  0.00    +0.000 HD
ATOM     32  CA  ALA E   4       4.639   0.943  32.823  0.00  0.00    +0.000 C 
ATOM     33  C   ALA E   4       5.400  -0.372  32.622  0.00  0.00    +0.000 C 
ATOM     34  O   ALA E   4       6.520  -0.362  32.108  0.00  0.00    +0.000 OA
ATOM     35  CB  ALA E   4       5.573   2.137  32.579  0.00  0.00    +0.000 C 
ATOM     36  N   GLY E   5       4.804  -1.486  33.070  0.00  0.00    +0.000 N 
ATOM     37  H   GLY E   5       3.905  -1.417  33.519  0.00  0.00    +0.000 HD
ATOM     38  CA  GLY E   5       5.425  -2.801  32.935  0.00  0.00    +0.000 C 
ATOM     39  C   GLY E   5       6.338  -3.177  34.081  0.00  0.00    +0.000 C 
ATOM     40  O   GLY E   5       6.861  -4.288  34.117  0.00  0.00    +0.000 OA
ATOM     41  N   ILE E   6       6.561  -2.261  35.026  0.00  0.00    +0.000 N 
ATOM     42  H   ILE E   6       6.221  -1.315  34.917  0.00  0.00    +0.000 HD
ATOM     43  CA  ILE E   6       7.323  -2.568  36.228  0.00  0.00    +0.000 C 
ATOM     44  C   ILE E   6       6.294  -3.038  37.253  0.00  0.00    +0.000 C 
ATOM     45  O   ILE E   6       5.470  -2.238  37.708  0.00  0.00    +0.000 OA
ATOM     46  CB  ILE E   6       8.175  -1.362  36.763  0.00  0.00    +0.000 C 
ATOM     47  CG1 ILE E   6       9.221  -0.868  35.706  0.00  0.00    +0.000 C 
ATOM     48  CG2 ILE E   6       8.857  -1.742  38.089  0.00  0.00    +0.000 C 
ATOM     49  CD1 ILE E   6       9.761   0.565  35.980  0.00  0.00    +0.000 C 
ATOM     50  N   LYS E   7       6.290  -4.357  37.564  0.00  0.00    +0.000 N 
ATOM     51  H   LYS E   7       7.014  -4.938  37.171  0.00  0.00    +0.000 HD
ATOM     52  CA  LYS E   7       5.384  -4.927  38.568  0.00  0.00    +0.000 C 
ATOM     53  C   LYS E   7       5.833  -4.438  39.950  0.00  0.00    +0.000 C 
ATOM     54  O   LYS E   7       7.026  -4.473  40.245  0.00  0.00    +0.000 OA
ATOM     55  CB  LYS E   7       5.467  -6.476  38.544  0.00  0.00    +0.000 C 
ATOM     56  CG  LYS E   7       4.141  -7.148  38.246  0.00  0.00    +0.000 C 
ATOM     57  CD  LYS E   7       3.759  -7.013  36.764  0.00  0.00    +0.000 C 
ATOM     58  CE  LYS E   7       2.340  -7.446  36.475  0.00  0.00    +0.000 C 
ATOM     59  NZ  LYS E   7       2.217  -8.904  36.208  0.00  0.00    +0.000 N 
ATOM     60  HZ1 LYS E   7       2.859  -9.186  35.477  0.00  0.00    +0.000 HD
ATOM     61  HZ2 LYS E   7       2.427  -9.416  37.059  0.00  0.00    +0.000 HD
ATOM     62  HZ3 LYS E   7       1.266  -9.125  35.933  0.00  0.00    +0.000 HD
ATOM     63  N   ASP E   8       4.890  -3.975  40.787  0.00  0.00    +0.000 N 
ATOM     64  H   ASP E   8       3.908  -4.074  40.523  0.00  0.00    +0.000 HD
ATOM     65  CA  ASP E   8       5.189  -3.467  42.134  0.00  0.00    +0.000 C 
ATOM     66  C   ASP E   8       6.373  -2.465  42.146  0.00  0.00    +0.000 C 
ATOM     67  O   ASP E   8       7.363  -2.665  42.868  0.00  0.00    +0.000 OA
ATOM     68  CB  ASP E   8       5.435  -4.620  43.145  0.00  0.00    +0.000 C 
ATOM     69  CG  ASP E   8       4.372  -5.694  43.150  0.00  0.00    +0.000 C 
ATOM     70  OD1 ASP E   8       3.173  -5.344  43.055  0.00  0.00    +0.000 OA
ATOM     71  OD2 ASP E   8       4.739  -6.886  43.251  0.00  0.00    +0.000 OA
ATOM     72  N   ARG E   9       6.287  -1.435  41.288  0.00  0.00    +0.000 N 
ATOM     73  H   ARG E   9       5.427  -1.341  40.757  0.00  0.00    +0.000 HD
ATOM     74  CA  ARG E   9       7.256  -0.336  41.253  0.00  0.00    +0.000 C 
ATOM     75  C   ARG E   9       7.194   0.257  42.681  0.00  0.00    +0.000 C 
ATOM     76  O   ARG E   9       6.107   0.570  43.180  0.00  0.00    +0.000 OA
ATOM     77  CB  ARG E   9       6.856   0.726  40.177  0.00  0.00    +0.000 C 
ATOM     78  CG  ARG E   9       7.966   1.749  39.832  0.00  0.00    +0.000 C 
ATOM     79  CD  ARG E   9       8.174   2.814  40.906  0.00  0.00    +0.000 C 
ATOM     80  NE  ARG E   9       8.632   4.091  40.354  0.00  0.00    +0.000 N 
ATOM     81  HE  ARG E   9       8.283   4.331  39.443  0.00  0.00    +0.000 HD
ATOM     82  CZ  ARG E   9       9.343   5.003  41.008  0.00  0.00    +0.000 C 
ATOM     83  NH1 ARG E   9       9.739   4.778  42.258  0.00  0.00    +0.000 N 
ATOM     84 HH11 ARG E   9      10.300   5.437  42.773  0.00  0.00    +0.000 HD
ATOM     85 HH12 ARG E   9       9.538   3.898  42.731  0.00  0.00    +0.000 HD
ATOM     86  NH2 ARG E   9       9.662   6.148  40.420  0.00  0.00    +0.000 N 
ATOM     87 HH21 ARG E   9       9.239   6.370  39.536  0.00  0.00    +0.000 HD
ATOM     88 HH22 ARG E   9       9.992   6.899  41.002  0.00  0.00    +0.000 HD
ATOM     89  N   VAL E  10       8.348   0.356  43.341  0.00  0.00    +0.000 N 
ATOM     90  H   VAL E  10       9.131  -0.139  42.952  0.00  0.00    +0.000 HD
ATOM     91  CA  VAL E  10       8.417   0.827  44.722  0.00  0.00    +0.000 C 
ATOM     92  C   VAL E  10       8.680   2.339  44.825  0.00  0.00    +0.000 C 
ATOM     93  O   VAL E  10       9.635   2.838  44.253  0.00  0.00    +0.000 OA
ATOM     94  CB  VAL E  10       9.441   0.000  45.575  0.00  0.00    +0.000 C 
ATOM     95  CG1 VAL E  10       9.569   0.546  46.995  0.00  0.00    +0.000 C 
ATOM     96  CG2 VAL E  10       9.083  -1.493  45.596  0.00  0.00    +0.000 C 
ATOM     97  N   TYR E  11       7.866   3.022  45.640  0.00  0.00    +0.000 N 
ATOM     98  H   TYR E  11       7.114   2.525  46.096  0.00  0.00    +0.000 HD
ATOM     99  CA  TYR E  11       8.020   4.428  45.977  0.00  0.00    +0.000 C 
ATOM    100  C   TYR E  11       8.373   4.487  47.451  0.00  0.00    +0.000 C 
ATOM    101  O   TYR E  11       7.541   4.167  48.306  0.00  0.00    +0.000 OA
ATOM    102  CB  TYR E  11       6.752   5.249  45.714  0.00  0.00    +0.000 C 
ATOM    103  CG  TYR E  11       6.247   5.166  44.295  0.00  0.00    +0.000 A 
ATOM    104  CD1 TYR E  11       6.724   6.032  43.311  0.00  0.00    +0.000 A 
ATOM    105  CD2 TYR E  11       5.280   4.232  43.933  0.00  0.00    +0.000 A 
ATOM    106  CE1 TYR E  11       6.217   5.999  42.017  0.00  0.00    +0.000 A 
ATOM    107  CE2 TYR E  11       4.813   4.149  42.626  0.00  0.00    +0.000 A 
ATOM    108  CZ  TYR E  11       5.272   5.042  41.674  0.00  0.00    +0.000 A 
ATOM    109  OH  TYR E  11       4.794   4.954  40.390  0.00  0.00    +0.000 OA
ATOM    110  HH  TYR E  11       4.330   5.772  40.167  0.00  0.00    +0.000 HD
ATOM    111  N   SER E  12       9.615   4.870  47.743  0.00  0.00    +0.000 N 
ATOM    112  H   SER E  12      10.241   5.196  47.023  0.00  0.00    +0.000 HD
ATOM    113  CA  SER E  12      10.066   5.009  49.112  0.00  0.00    +0.000 C 
ATOM    114  C   SER E  12      10.314   6.481  49.448  0.00  0.00    +0.000 C 
ATOM    115  O   SER E  12      10.731   7.248  48.578  0.00  0.00    +0.000 OA
ATOM    116  CB  SER E  12      11.297   4.147  49.376  0.00  0.00    +0.000 C 
ATOM    117  OG  SER E  12      12.419   4.579  48.625  0.00  0.00    +0.000 OA
ATOM    118  HG  SER E  12      13.221   4.213  49.051  0.00  0.00    +0.000 HD
ATOM    119  N   NME E  13       9.962   6.889  50.677  0.00  0.00    +0.000 N 
ATOM    120  H   NME E  13       9.574   6.213  51.313  0.00  0.00    +0.000 HD
ATOM    121  C   NME E  13      10.138   8.276  51.161  0.00  0.00    +0.000 C 
TER 
REMARK  Name = /home/xianyang/aimnet2_score_pipelines/work/L1234-fixed-receptor-eint-20260921/L1/Q86WV6/prepared.pdb
REMARK                            x       y       z     vdW  Elec       q    Type
REMARK                         _______ _______ _______ _____ _____    ______ ____
ATOM      1  CH3 ACE F   1       8.700  13.664  54.944  0.00  0.00    +0.000 C 
ATOM      2  C   ACE F   1       9.366  14.706  54.029  0.00  0.00    +0.000 C 
ATOM      3  O   ACE F   1       8.771  15.741  53.728  0.00  0.00    +0.000 OA
ATOM      4  N   LEU F   2      10.620  14.463  53.669  0.00  0.00    +0.000 N 
ATOM      5  H   LEU F   2      11.042  13.572  53.881  0.00  0.00    +0.000 HD
ATOM      6  CA  LEU F   2      11.420  15.433  52.952  0.00  0.00    +0.000 C 
ATOM      7  C   LEU F   2      12.298  14.808  51.851  0.00  0.00    +0.000 C 
ATOM      8  O   LEU F   2      12.894  13.741  52.043  0.00  0.00    +0.000 OA
ATOM      9  CB  LEU F   2      12.297  16.140  54.024  0.00  0.00    +0.000 C 
ATOM     10  CG  LEU F   2      13.137  17.368  53.664  0.00  0.00    +0.000 C 
ATOM     11  CD1 LEU F   2      12.264  18.568  53.333  0.00  0.00    +0.000 C 
ATOM     12  CD2 LEU F   2      14.035  17.731  54.829  0.00  0.00    +0.000 C 
ATOM     13  N   GLU F   3      12.405  15.515  50.724  0.00  0.00    +0.000 N 
ATOM     14  H   GLU F   3      11.853  16.353  50.621  0.00  0.00    +0.000 HD
ATOM     15  CA  GLU F   3      13.252  15.158  49.559  0.00  0.00    +0.000 C 
ATOM     16  C   GLU F   3      13.429  16.320  48.585  0.00  0.00    +0.000 C 
ATOM     17  O   GLU F   3      12.620  17.240  48.563  0.00  0.00    +0.000 OA
ATOM     18  CB  GLU F   3      12.715  13.920  48.798  0.00  0.00    +0.000 C 
ATOM     19  CG  GLU F   3      11.346  14.111  48.164  0.00  0.00    +0.000 C 
ATOM     20  CD  GLU F   3      10.647  12.829  47.760  0.00  0.00    +0.000 C 
ATOM     21  OE1 GLU F   3      10.267  12.700  46.577  0.00  0.00    +0.000 OA
ATOM     22  OE2 GLU F   3      10.488  11.945  48.623  0.00  0.00    +0.000 OA
ATOM     23  N   TYR F   4      14.455  16.230  47.733  0.00  0.00    +0.000 N 
ATOM     24  H   TYR F   4      15.017  15.386  47.756  0.00  0.00    +0.000 HD
ATOM     25  CA  TYR F   4      14.689  17.191  46.650  0.00  0.00    +0.000 C 
ATOM     26  C   TYR F   4      13.889  16.781  45.416  0.00  0.00    +0.000 C 
ATOM     27  O   TYR F   4      13.736  15.581  45.143  0.00  0.00    +0.000 OA
ATOM     28  CB  TYR F   4      16.176  17.190  46.249  0.00  0.00    +0.000 C 
ATOM     29  CG  TYR F   4      17.090  17.829  47.267  0.00  0.00    +0.000 A 
ATOM     30  CD1 TYR F   4      17.328  19.201  47.254  0.00  0.00    +0.000 A 
ATOM     31  CD2 TYR F   4      17.726  17.062  48.241  0.00  0.00    +0.000 A 
ATOM     32  CE1 TYR F   4      18.153  19.803  48.211  0.00  0.00    +0.000 A 
ATOM     33  CE2 TYR F   4      18.573  17.650  49.185  0.00  0.00    +0.000 A 
ATOM     34  CZ  TYR F   4      18.771  19.026  49.171  0.00  0.00    +0.000 A 
ATOM     35  OH  TYR F   4      19.610  19.617  50.083  0.00  0.00    +0.000 OA
ATOM     36  HH  TYR F   4      19.983  18.984  50.701  0.00  0.00    +0.000 HD
ATOM     37  N   ALA F   5      13.459  17.778  44.624  0.00  0.00    +0.000 N 
ATOM     38  H   ALA F   5      13.621  18.727  44.916  0.00  0.00    +0.000 HD
ATOM     39  CA  ALA F   5      12.848  17.555  43.302  0.00  0.00    +0.000 C 
ATOM     40  C   ALA F   5      14.031  17.215  42.379  0.00  0.00    +0.000 C 
ATOM     41  O   ALA F   5      14.816  18.084  42.019  0.00  0.00    +0.000 OA
ATOM     42  CB  ALA F   5      12.122  18.812  42.810  0.00  0.00    +0.000 C 
ATOM     43  N   THR F   6      14.210  15.920  42.096  0.00  0.00    +0.000 N 
ATOM     44  H   THR F   6      13.575  15.265  42.529  0.00  0.00    +0.000 HD
ATOM     45  CA  THR F   6      15.329  15.394  41.278  0.00  0.00    +0.000 C 
ATOM     46  C   THR F   6      15.469  16.033  39.845  0.00  0.00    +0.000 C 
ATOM     47  O   THR F   6      16.612  16.142  39.408  0.00  0.00    +0.000 OA
ATOM     48  CB  THR F   6      15.249  13.886  41.210  0.00  0.00    +0.000 C 
ATOM     49  OG1 THR F   6      13.894  13.516  40.938  0.00  0.00    +0.000 OA
ATOM     50  HG1 THR F   6      13.451  13.343  41.778  0.00  0.00    +0.000 HD
ATOM     51  CG2 THR F   6      15.750  13.235  42.508  0.00  0.00    +0.000 C 
ATOM     52  N   PRO F   7      14.395  16.528  39.146  0.00  0.00    +0.000 N 
ATOM     53  CA  PRO F   7      14.609  17.194  37.844  0.00  0.00    +0.000 C 
ATOM     54  C   PRO F   7      15.534  18.413  37.890  0.00  0.00    +0.000 C 
ATOM     55  O   PRO F   7      16.105  18.748  36.859  0.00  0.00    +0.000 OA
ATOM     56  CB  PRO F   7      13.187  17.578  37.394  0.00  0.00    +0.000 C 
ATOM     57  CG  PRO F   7      12.297  16.609  38.123  0.00  0.00    +0.000 C 
ATOM     58  CD  PRO F   7      12.940  16.441  39.448  0.00  0.00    +0.000 C 
ATOM     59  N   LEU F   8      15.705  19.068  39.065  0.00  0.00    +0.000 N 
ATOM     60  H   LEU F   8      15.208  18.752  39.890  0.00  0.00    +0.000 HD
ATOM     61  CA  LEU F   8      16.642  20.202  39.201  0.00  0.00    +0.000 C 
ATOM     62  C   LEU F   8      18.074  19.738  38.959  0.00  0.00    +0.000 C 
ATOM     63  O   LEU F   8      18.867  20.486  38.404  0.00  0.00    +0.000 OA
ATOM     64  CB  LEU F   8      16.523  20.912  40.545  0.00  0.00    +0.000 C 
ATOM     65  CG  LEU F   8      15.201  21.670  40.752  0.00  0.00    +0.000 C 
ATOM     66  CD1 LEU F   8      15.079  22.159  42.194  0.00  0.00    +0.000 C 
ATOM     67  CD2 LEU F   8      15.001  22.798  39.704  0.00  0.00    +0.000 C 
ATOM     68  N   GLN F   9      18.386  18.469  39.306  0.00  0.00    +0.000 N 
ATOM     69  H   GLN F   9      17.678  17.865  39.703  0.00  0.00    +0.000 HD
ATOM     70  CA  GLN F   9      19.721  17.940  39.015  0.00  0.00    +0.000 C 
ATOM     71  C   GLN F   9      19.887  17.745  37.505  0.00  0.00    +0.000 C 
ATOM     72  O   GLN F   9      21.018  17.826  37.008  0.00  0.00    +0.000 OA
ATOM     73  CB  GLN F   9      19.987  16.631  39.768  0.00  0.00    +0.000 C 
ATOM     74  CG  GLN F   9      21.381  16.064  39.415  0.00  0.00    +0.000 C 
ATOM     75  CD  GLN F   9      21.702  14.898  40.268  0.00  0.00    +0.000 C 
ATOM     76  OE1 GLN F   9      21.259  13.786  40.002  0.00  0.00    +0.000 OA
ATOM     77  NE2 GLN F   9      22.434  15.144  41.331  0.00  0.00    +0.000 N 
ATOM     78 HE21 GLN F   9      22.811  14.357  41.834  0.00  0.00    +0.000 HD
ATOM     79 HE22 GLN F   9      22.804  16.071  41.449  0.00  0.00    +0.000 HD
ATOM     80  N   THR F  10      18.767  17.498  36.765  0.00  0.00    +0.000 N 
ATOM     81  H   THR F  10      17.860  17.576  37.204  0.00  0.00    +0.000 HD
ATOM     82  CA  THR F  10      18.861  17.387  35.311  0.00  0.00    +0.000 C 
ATOM     83  C   THR F  10      19.297  18.746  34.722  0.00  0.00    +0.000 C 
ATOM     84  O   THR F  10      20.112  18.768  33.807  0.00  0.00    +0.000 OA
ATOM     85  CB  THR F  10      17.557  16.898  34.681  0.00  0.00    +0.000 C 
ATOM     86  OG1 THR F  10      17.253  15.580  35.187  0.00  0.00    +0.000 OA
ATOM     87  HG1 THR F  10      17.253  15.646  36.151  0.00  0.00    +0.000 HD
ATOM     88  CG2 THR F  10      17.612  16.931  33.138  0.00  0.00    +0.000 C 
ATOM     89  N   LEU F  11      18.732  19.861  35.222  0.00  0.00    +0.000 N 
ATOM     90  H   LEU F  11      18.054  19.772  35.966  0.00  0.00    +0.000 HD
ATOM     91  CA  LEU F  11      19.129  21.206  34.785  0.00  0.00    +0.000 C 
ATOM     92  C   LEU F  11      20.620  21.431  35.056  0.00  0.00    +0.000 C 
ATOM     93  O   LEU F  11      21.307  21.991  34.216  0.00  0.00    +0.000 OA
ATOM     94  CB  LEU F  11      18.323  22.287  35.519  0.00  0.00    +0.000 C 
ATOM     95  CG  LEU F  11      16.790  22.272  35.230  0.00  0.00    +0.000 C 
ATOM     96  CD1 LEU F  11      16.106  23.362  36.076  0.00  0.00    +0.000 C 
ATOM     97  CD2 LEU F  11      16.512  22.438  33.714  0.00  0.00    +0.000 C 
ATOM     98  N   NME F  12      21.094  21.043  36.262  0.00  0.00    +0.000 N 
ATOM     99  H   NME F  12      20.447  20.630  36.921  0.00  0.00    +0.000 HD
ATOM    100  C   NME F  12      22.506  21.161  36.630  0.00  0.00    +0.000 C 
TER 
