REMARK  Name = /home/xianyang/aimnet2_score_pipelines/work/L1234-fixed-receptor-eint-20260921/L2/Q06187/prepared.pdb
REMARK                            x       y       z     vdW  Elec       q    Type
REMARK                         _______ _______ _______ _____ _____    ______ ____
ATOM      1  CH3 ACE A   1      -5.919 -33.750  31.709  0.00  0.00    +0.000 C 
ATOM      2  C   ACE A   1      -5.886 -32.765  30.551  0.00  0.00    +0.000 C 
ATOM      3  O   ACE A   1      -6.139 -33.130  29.400  0.00  0.00    +0.000 OA
ATOM      4  N   GLU A   2      -5.555 -31.517  30.871  0.00  0.00    +0.000 N 
ATOM      5  H   GLU A   2      -5.244 -31.305  31.805  0.00  0.00    +0.000 HD
ATOM      6  CA  GLU A   2      -5.537 -30.451  29.875  0.00  0.00    +0.000 C 
ATOM      7  C   GLU A   2      -4.227 -30.450  29.100  0.00  0.00    +0.000 C 
ATOM      8  O   GLU A   2      -3.157 -30.709  29.653  0.00  0.00    +0.000 OA
ATOM      9  CB  GLU A   2      -5.750 -29.083  30.531  0.00  0.00    +0.000 C 
ATOM     10  CG  GLU A   2      -6.084 -27.961  29.537  0.00  0.00    +0.000 C 
ATOM     11  CD  GLU A   2      -6.708 -26.743  30.204  0.00  0.00    +0.000 C 
ATOM     12  OE1 GLU A   2      -7.785 -26.878  30.823  0.00  0.00    +0.000 OA
ATOM     13  OE2 GLU A   2      -6.120 -25.645  30.097  0.00  0.00    +0.000 OA
ATOM     14  N   LEU A   3      -4.323 -30.138  27.805  0.00  0.00    +0.000 N 
ATOM     15  H   LEU A   3      -5.234 -29.918  27.419  0.00  0.00    +0.000 HD
ATOM     16  CA  LEU A   3      -3.187 -30.111  26.897  0.00  0.00    +0.000 C 
ATOM     17  C   LEU A   3      -2.755 -28.703  26.519  0.00  0.00    +0.000 C 
ATOM     18  O   LEU A   3      -1.592 -28.510  26.150  0.00  0.00    +0.000 OA
ATOM     19  CB  LEU A   3      -3.561 -30.854  25.611  0.00  0.00    +0.000 C 
ATOM     20  CG  LEU A   3      -3.680 -32.368  25.764  0.00  0.00    +0.000 C 
ATOM     21  CD1 LEU A   3      -4.175 -32.983  24.482  0.00  0.00    +0.000 C 
ATOM     22  CD2 LEU A   3      -2.349 -32.969  26.180  0.00  0.00    +0.000 C 
ATOM     23  N   GLY A   4      -3.638 -27.732  26.604  0.00  0.00    +0.000 N 
ATOM     24  H   GLY A   4      -4.575 -27.951  26.911  0.00  0.00    +0.000 HD
ATOM     25  CA  GLY A   4      -3.363 -26.374  26.199  0.00  0.00    +0.000 C 
ATOM     26  C   GLY A   4      -4.572 -25.793  25.506  0.00  0.00    +0.000 C 
ATOM     27  O   GLY A   4      -5.670 -26.342  25.564  0.00  0.00    +0.000 OA
ATOM     28  N   THR A   5      -4.379 -24.648  24.866  0.00  0.00    +0.000 N 
ATOM     29  H   THR A   5      -3.451 -24.251  24.814  0.00  0.00    +0.000 HD
ATOM     30  CA  THR A   5      -5.457 -23.965  24.168  0.00  0.00    +0.000 C 
ATOM     31  C   THR A   5      -4.979 -23.648  22.761  0.00  0.00    +0.000 C 
ATOM     32  O   THR A   5      -3.823 -23.271  22.560  0.00  0.00    +0.000 OA
ATOM     33  CB  THR A   5      -5.884 -22.677  24.910  0.00  0.00    +0.000 C 
ATOM     34  OG1 THR A   5      -7.098 -22.166  24.337  0.00  0.00    +0.000 OA
ATOM     35  HG1 THR A   5      -7.307 -21.353  24.795  0.00  0.00    +0.000 HD
ATOM     36  CG2 THR A   5      -4.796 -21.615  24.883  0.00  0.00    +0.000 C 
ATOM     37  N   GLY A   6      -5.855 -23.847  21.783  0.00  0.00    +0.000 N 
ATOM     38  H   GLY A   6      -6.828 -23.999  22.030  0.00  0.00    +0.000 HD
ATOM     39  CA  GLY A   6      -5.496 -23.565  20.406  0.00  0.00    +0.000 C 
ATOM     40  C   GLY A   6      -6.647 -22.880  19.711  0.00  0.00    +0.000 C 
ATOM     41  O   GLY A   6      -7.511 -22.293  20.377  0.00  0.00    +0.000 OA
ATOM     42  N   GLN A   7      -6.686 -22.964  18.384  0.00  0.00    +0.000 N 
ATOM     43  H   GLN A   7      -5.933 -23.401  17.874  0.00  0.00    +0.000 HD
ATOM     44  CA  GLN A   7      -7.785 -22.347  17.651  0.00  0.00    +0.000 C 
ATOM     45  C   GLN A   7      -9.089 -22.939  18.141  0.00  0.00    +0.000 C 
ATOM     46  O   GLN A   7      -9.218 -24.158  18.282  0.00  0.00    +0.000 OA
ATOM     47  CB  GLN A   7      -7.649 -22.591  16.150  0.00  0.00    +0.000 C 
ATOM     48  CG  GLN A   7      -6.408 -21.950  15.527  0.00  0.00    +0.000 C 
ATOM     49  CD  GLN A   7      -6.587 -20.469  15.245  0.00  0.00    +0.000 C 
ATOM     50  OE1 GLN A   7      -7.691 -19.917  15.294  0.00  0.00    +0.000 OA
ATOM     51  NE2 GLN A   7      -5.482 -19.811  14.950  0.00  0.00    +0.000 N 
ATOM     52 HE21 GLN A   7      -4.594 -20.270  15.018  0.00  0.00    +0.000 HD
ATOM     53 HE22 GLN A   7      -5.541 -18.802  14.817  0.00  0.00    +0.000 HD
ATOM     54  N   PHE A   8     -10.043 -22.065  18.443  0.00  0.00    +0.000 N 
ATOM     55  H   PHE A   8      -9.845 -21.087  18.291  0.00  0.00    +0.000 HD
ATOM     56  CA  PHE A   8     -11.400 -22.421  18.854  0.00  0.00    +0.000 C 
ATOM     57  C   PHE A   8     -11.531 -22.961  20.270  0.00  0.00    +0.000 C 
ATOM     58  O   PHE A   8     -12.659 -23.268  20.673  0.00  0.00    +0.000 OA
ATOM     59  CB  PHE A   8     -12.104 -23.365  17.865  0.00  0.00    +0.000 C 
ATOM     60  CG  PHE A   8     -11.873 -22.991  16.418  0.00  0.00    +0.000 A 
ATOM     61  CD1 PHE A   8     -12.229 -21.734  15.963  0.00  0.00    +0.000 A 
ATOM     62  CD2 PHE A   8     -11.249 -23.871  15.542  0.00  0.00    +0.000 A 
ATOM     63  CE1 PHE A   8     -12.009 -21.360  14.640  0.00  0.00    +0.000 A 
ATOM     64  CE2 PHE A   8     -11.024 -23.506  14.219  0.00  0.00    +0.000 A 
ATOM     65  CZ  PHE A   8     -11.393 -22.246  13.776  0.00  0.00    +0.000 A 
ATOM     66  N   GLY A   9     -10.441 -23.128  21.024  0.00  0.00    +0.000 N 
ATOM     67  H   GLY A   9      -9.533 -22.840  20.679  0.00  0.00    +0.000 HD
ATOM     68  CA  GLY A   9     -10.608 -23.376  22.444  0.00  0.00    +0.000 C 
ATOM     69  C   GLY A   9      -9.630 -24.386  23.030  0.00  0.00    +0.000 C 
ATOM     70  O   GLY A   9      -8.655 -24.813  22.401  0.00  0.00    +0.000 OA
ATOM     71  N   VAL A  10      -9.934 -24.752  24.280  0.00  0.00    +0.000 N 
ATOM     72  H   VAL A  10     -10.790 -24.397  24.681  0.00  0.00    +0.000 HD
ATOM     73  CA  VAL A  10      -9.088 -25.615  25.103  0.00  0.00    +0.000 C 
ATOM     74  C   VAL A  10      -9.140 -27.047  24.595  0.00  0.00    +0.000 C 
ATOM     75  O   VAL A  10     -10.198 -27.536  24.169  0.00  0.00    +0.000 OA
ATOM     76  CB  VAL A  10      -9.581 -25.550  26.561  0.00  0.00    +0.000 C 
ATOM     77  CG1 VAL A  10      -8.798 -26.497  27.460  0.00  0.00    +0.000 C 
ATOM     78  CG2 VAL A  10      -9.466 -24.124  27.086  0.00  0.00    +0.000 C 
ATOM     79  N   VAL A  11      -7.999 -27.738  24.665  0.00  0.00    +0.000 N 
ATOM     80  H   VAL A  11      -7.181 -27.292  25.077  0.00  0.00    +0.000 HD
ATOM     81  CA  VAL A  11      -7.879 -29.130  24.254  0.00  0.00    +0.000 C 
ATOM     82  C   VAL A  11      -7.495 -29.962  25.471  0.00  0.00    +0.000 C 
ATOM     83  O   VAL A  11      -6.618 -29.570  26.251  0.00  0.00    +0.000 OA
ATOM     84  CB  VAL A  11      -6.831 -29.305  23.138  0.00  0.00    +0.000 C 
ATOM     85  CG1 VAL A  11      -6.832 -30.741  22.616  0.00  0.00    +0.000 C 
ATOM     86  CG2 VAL A  11      -7.082 -28.314  21.996  0.00  0.00    +0.000 C 
ATOM     87  N   LYS A  12      -8.138 -31.121  25.612  0.00  0.00    +0.000 N 
ATOM     88  H   LYS A  12      -8.859 -31.371  24.939  0.00  0.00    +0.000 HD
ATOM     89  CA  LYS A  12      -7.822 -32.064  26.673  0.00  0.00    +0.000 C 
ATOM     90  C   LYS A  12      -7.511 -33.432  26.079  0.00  0.00    +0.000 C 
ATOM     91  O   LYS A  12      -7.994 -33.794  25.000  0.00  0.00    +0.000 OA
ATOM     92  CB  LYS A  12      -9.007 -32.174  27.639  0.00  0.00    +0.000 C 
ATOM     93  CG  LYS A  12      -9.292 -30.847  28.356  0.00  0.00    +0.000 C 
ATOM     94  CD  LYS A  12      -9.503 -31.033  29.848  0.00  0.00    +0.000 C 
ATOM     95  CE  LYS A  12      -9.820 -29.702  30.520  0.00  0.00    +0.000 C 
ATOM     96  NZ  LYS A  12     -10.862 -28.942  29.781  0.00  0.00    +0.000 N 
ATOM     97  HZ1 LYS A  12     -10.528 -28.740  28.849  0.00  0.00    +0.000 HD
ATOM     98  HZ2 LYS A  12     -11.735 -29.449  29.744  0.00  0.00    +0.000 HD
ATOM     99  HZ3 LYS A  12     -10.998 -28.051  30.248  0.00  0.00    +0.000 HD
ATOM    100  N   NME A  13      -6.676 -34.183  26.787  0.00  0.00    +0.000 N 
ATOM    101  H   NME A  13      -6.329 -33.811  27.667  0.00  0.00    +0.000 HD
ATOM    102  C   NME A  13      -6.433 -35.585  26.494  0.00  0.00    +0.000 C 
TER 
REMARK  Name = /home/xianyang/aimnet2_score_pipelines/work/L1234-fixed-receptor-eint-20260921/L2/Q06187/prepared.pdb
REMARK                            x       y       z     vdW  Elec       q    Type
REMARK                         _______ _______ _______ _____ _____    ______ ____
ATOM      1  CH3 ACE B   1      -6.750 -42.142  23.160  0.00  0.00    +0.000 C 
ATOM      2  C   ACE B   1      -7.444 -41.167  22.215  0.00  0.00    +0.000 C 
ATOM      3  O   ACE B   1      -7.546 -41.427  21.010  0.00  0.00    +0.000 OA
ATOM      4  N   VAL B   2      -7.922 -40.049  22.755  0.00  0.00    +0.000 N 
ATOM      5  H   VAL B   2      -7.779 -39.859  23.736  0.00  0.00    +0.000 HD
ATOM      6  CA  VAL B   2      -8.535 -39.007  21.937  0.00  0.00    +0.000 C 
ATOM      7  C   VAL B   2      -8.088 -37.640  22.431  0.00  0.00    +0.000 C 
ATOM      8  O   VAL B   2      -7.743 -37.453  23.603  0.00  0.00    +0.000 OA
ATOM      9  CB  VAL B   2     -10.075 -39.062  21.940  0.00  0.00    +0.000 C 
ATOM     10  CG1 VAL B   2     -10.574 -40.341  21.289  0.00  0.00    +0.000 C 
ATOM     11  CG2 VAL B   2     -10.601 -38.898  23.371  0.00  0.00    +0.000 C 
ATOM     12  N   ALA B   3      -8.099 -36.671  21.517  0.00  0.00    +0.000 N 
ATOM     13  H   ALA B   3      -8.391 -36.903  20.571  0.00  0.00    +0.000 HD
ATOM     14  CA  ALA B   3      -8.078 -35.264  21.878  0.00  0.00    +0.000 C 
ATOM     15  C   ALA B   3      -9.508 -34.753  21.848  0.00  0.00    +0.000 C 
ATOM     16  O   ALA B   3     -10.282 -35.105  20.950  0.00  0.00    +0.000 OA
ATOM     17  CB  ALA B   3      -7.223 -34.449  20.900  0.00  0.00    +0.000 C 
ATOM     18  N   ILE B   4      -9.862 -33.934  22.834  0.00  0.00    +0.000 N 
ATOM     19  H   ILE B   4      -9.191 -33.755  23.575  0.00  0.00    +0.000 HD
ATOM     20  CA  ILE B   4     -11.199 -33.359  22.955  0.00  0.00    +0.000 C 
ATOM     21  C   ILE B   4     -11.046 -31.851  23.070  0.00  0.00    +0.000 C 
ATOM     22  O   ILE B   4     -10.421 -31.354  24.018  0.00  0.00    +0.000 OA
ATOM     23  CB  ILE B   4     -11.957 -33.909  24.177  0.00  0.00    +0.000 C 
ATOM     24  CG1 ILE B   4     -11.937 -35.440  24.179  0.00  0.00    +0.000 C 
ATOM     25  CG2 ILE B   4     -13.388 -33.357  24.179  0.00  0.00    +0.000 C 
ATOM     26  CD1 ILE B   4     -12.348 -36.066  25.531  0.00  0.00    +0.000 C 
ATOM     27  N   LYS B   5     -11.612 -31.120  22.114  0.00  0.00    +0.000 N 
ATOM     28  H   LYS B   5     -12.144 -31.601  21.390  0.00  0.00    +0.000 HD
ATOM     29  CA  LYS B   5     -11.539 -29.667  22.103  0.00  0.00    +0.000 C 
ATOM     30  C   LYS B   5     -12.909 -29.110  22.446  0.00  0.00    +0.000 C 
ATOM     31  O   LYS B   5     -13.927 -29.587  21.922  0.00  0.00    +0.000 OA
ATOM     32  CB  LYS B   5     -11.066 -29.132  20.743  0.00  0.00    +0.000 C 
ATOM     33  CG  LYS B   5     -11.042 -27.596  20.667  0.00  0.00    +0.000 C 
ATOM     34  CD  LYS B   5     -10.517 -27.082  19.317  0.00  0.00    +0.000 C 
ATOM     35  CE  LYS B   5      -9.015 -27.293  19.167  0.00  0.00    +0.000 C 
ATOM     36  NZ  LYS B   5      -8.230 -26.182  19.780  0.00  0.00    +0.000 N 
ATOM     37  HZ1 LYS B   5      -7.238 -26.354  19.740  0.00  0.00    +0.000 HD
ATOM     38  HZ2 LYS B   5      -8.503 -26.021  20.749  0.00  0.00    +0.000 HD
ATOM     39  HZ3 LYS B   5      -8.447 -25.322  19.283  0.00  0.00    +0.000 HD
ATOM     40  N   MET B   6     -12.927 -28.119  23.332  0.00  0.00    +0.000 N 
ATOM     41  H   MET B   6     -12.044 -27.765  23.680  0.00  0.00    +0.000 HD
ATOM     42  CA  MET B   6     -14.163 -27.542  23.837  0.00  0.00    +0.000 C 
ATOM     43  C   MET B   6     -14.334 -26.242  23.068  0.00  0.00    +0.000 C 
ATOM     44  O   MET B   6     -13.549 -25.307  23.245  0.00  0.00    +0.000 OA
ATOM     45  CB  MET B   6     -13.974 -27.271  25.325  0.00  0.00    +0.000 C 
ATOM     46  CG  MET B   6     -14.691 -28.264  26.196  0.00  0.00    +0.000 C 
ATOM     47  SD  MET B   6     -13.838 -29.849  26.006  0.00  0.00    +0.000 S 
ATOM     48  CE  MET B   6     -12.127 -29.373  26.299  0.00  0.00    +0.000 C 
ATOM     49  N   NME B   7     -15.337 -26.193  22.192  0.00  0.00    +0.000 N 
ATOM     50  H   NME B   7     -15.970 -26.985  22.119  0.00  0.00    +0.000 HD
ATOM     51  C   NME B   7     -15.492 -25.063  21.283  0.00  0.00    +0.000 C 
TER 
REMARK  Name = /home/xianyang/aimnet2_score_pipelines/work/L1234-fixed-receptor-eint-20260921/L2/Q06187/prepared.pdb
REMARK                            x       y       z     vdW  Elec       q    Type
REMARK                         _______ _______ _______ _____ _____    ______ ____
ATOM      1  CH3 ACE C   1     -18.678 -31.993   7.780  0.00  0.00    +0.000 C 
ATOM      2  C   ACE C   1     -17.525 -31.858   6.792  0.00  0.00    +0.000 C 
ATOM      3  O   ACE C   1     -17.127 -32.841   6.150  0.00  0.00    +0.000 OA
ATOM      4  N   VAL C   2     -16.960 -30.650   6.668  0.00  0.00    +0.000 N 
ATOM      5  H   VAL C   2     -17.353 -29.862   7.157  0.00  0.00    +0.000 HD
ATOM      6  CA  VAL C   2     -15.795 -30.466   5.805  0.00  0.00    +0.000 C 
ATOM      7  C   VAL C   2     -14.663 -31.377   6.258  0.00  0.00    +0.000 C 
ATOM      8  O   VAL C   2     -14.024 -32.061   5.447  0.00  0.00    +0.000 OA
ATOM      9  CB  VAL C   2     -15.370 -28.985   5.788  0.00  0.00    +0.000 C 
ATOM     10  CG1 VAL C   2     -14.025 -28.816   5.101  0.00  0.00    +0.000 C 
ATOM     11  CG2 VAL C   2     -16.442 -28.119   5.125  0.00  0.00    +0.000 C 
ATOM     12  N   MET C   3     -14.426 -31.424   7.570  0.00  0.00    +0.000 N 
ATOM     13  H   MET C   3     -14.944 -30.821   8.183  0.00  0.00    +0.000 HD
ATOM     14  CA  MET C   3     -13.365 -32.257   8.123  0.00  0.00    +0.000 C 
ATOM     15  C   MET C   3     -13.608 -33.736   7.870  0.00  0.00    +0.000 C 
ATOM     16  O   MET C   3     -12.682 -34.461   7.482  0.00  0.00    +0.000 OA
ATOM     17  CB  MET C   3     -13.208 -31.957   9.613  0.00  0.00    +0.000 C 
ATOM     18  CG  MET C   3     -11.917 -32.444  10.194  0.00  0.00    +0.000 C 
ATOM     19  SD  MET C   3     -11.965 -32.363  11.987  0.00  0.00    +0.000 S 
ATOM     20  CE  MET C   3     -10.340 -33.004  12.395  0.00  0.00    +0.000 C 
ATOM     21  N   MET C   4     -14.838 -34.203   8.084  0.00  0.00    +0.000 N 
ATOM     22  H   MET C   4     -15.580 -33.565   8.308  0.00  0.00    +0.000 HD
ATOM     23  CA  MET C   4     -15.113 -35.625   7.925  0.00  0.00    +0.000 C 
ATOM     24  C   MET C   4     -14.892 -36.057   6.477  0.00  0.00    +0.000 C 
ATOM     25  O   MET C   4     -14.360 -37.144   6.221  0.00  0.00    +0.000 OA
ATOM     26  CB  MET C   4     -16.549 -35.915   8.360  0.00  0.00    +0.000 C 
ATOM     27  CG  MET C   4     -16.870 -37.388   8.661  0.00  0.00    +0.000 C 
ATOM     28  SD  MET C   4     -15.632 -38.317   9.611  0.00  0.00    +0.000 S 
ATOM     29  CE  MET C   4     -16.430 -38.398  11.218  0.00  0.00    +0.000 C 
ATOM     30  N   NME C   5     -15.251 -35.194   5.518  0.00  0.00    +0.000 N 
ATOM     31  H   NME C   5     -15.607 -34.282   5.777  0.00  0.00    +0.000 HD
ATOM     32  C   NME C   5     -15.168 -35.541   4.097  0.00  0.00    +0.000 C 
TER 
REMARK  Name = /home/xianyang/aimnet2_score_pipelines/work/L1234-fixed-receptor-eint-20260921/L2/Q06187/prepared.pdb
REMARK                            x       y       z     vdW  Elec       q    Type
REMARK                         _______ _______ _______ _____ _____    ______ ____
ATOM      1  CH3 ACE D   1      -1.609 -37.475   7.239  0.00  0.00    +0.000 C 
ATOM      2  C   ACE D   1      -2.461 -36.262   7.587  0.00  0.00    +0.000 C 
ATOM      3  O   ACE D   1      -1.911 -35.186   7.857  0.00  0.00    +0.000 OA
ATOM      4  N   LEU D   2      -3.784 -36.418   7.605  0.00  0.00    +0.000 N 
ATOM      5  H   LEU D   2      -4.165 -37.339   7.451  0.00  0.00    +0.000 HD
ATOM      6  CA  LEU D   2      -4.692 -35.425   8.167  0.00  0.00    +0.000 C 
ATOM      7  C   LEU D   2      -5.235 -35.998   9.470  0.00  0.00    +0.000 C 
ATOM      8  O   LEU D   2      -5.626 -37.171   9.514  0.00  0.00    +0.000 OA
ATOM      9  CB  LEU D   2      -5.862 -35.158   7.209  0.00  0.00    +0.000 C 
ATOM     10  CG  LEU D   2      -5.529 -34.419   5.906  0.00  0.00    +0.000 C 
ATOM     11  CD1 LEU D   2      -6.771 -34.357   5.024  0.00  0.00    +0.000 C 
ATOM     12  CD2 LEU D   2      -4.992 -33.014   6.154  0.00  0.00    +0.000 C 
ATOM     13  N   VAL D   3      -5.258 -35.184  10.529  0.00  0.00    +0.000 N 
ATOM     14  H   VAL D   3      -4.995 -34.214  10.400  0.00  0.00    +0.000 HD
ATOM     15  CA  VAL D   3      -5.787 -35.646  11.814  0.00  0.00    +0.000 C 
ATOM     16  C   VAL D   3      -7.234 -36.088  11.632  0.00  0.00    +0.000 C 
ATOM     17  O   VAL D   3      -8.040 -35.384  11.013  0.00  0.00    +0.000 OA
ATOM     18  CB  VAL D   3      -5.643 -34.534  12.860  0.00  0.00    +0.000 C 
ATOM     19  CG1 VAL D   3      -6.177 -35.009  14.212  0.00  0.00    +0.000 C 
ATOM     20  CG2 VAL D   3      -4.177 -34.116  13.010  0.00  0.00    +0.000 C 
ATOM     21  N   GLN D   4      -7.566 -37.268  12.154  0.00  0.00    +0.000 N 
ATOM     22  H   GLN D   4      -6.818 -37.857  12.528  0.00  0.00    +0.000 HD
ATOM     23  CA  GLN D   4      -8.856 -37.890  11.876  0.00  0.00    +0.000 C 
ATOM     24  C   GLN D   4      -9.930 -37.434  12.862  0.00  0.00    +0.000 C 
ATOM     25  O   GLN D   4      -9.731 -37.478  14.083  0.00  0.00    +0.000 OA
ATOM     26  CB  GLN D   4      -8.709 -39.410  11.928  0.00  0.00    +0.000 C 
ATOM     27  CG  GLN D   4      -9.996 -40.178  11.646  0.00  0.00    +0.000 C 
ATOM     28  CD  GLN D   4     -10.581 -39.857  10.286  0.00  0.00    +0.000 C 
ATOM     29  OE1 GLN D   4      -9.928 -40.043   9.257  0.00  0.00    +0.000 OA
ATOM     30  NE2 GLN D   4     -11.830 -39.406  10.269  0.00  0.00    +0.000 N 
ATOM     31 HE21 GLN D   4     -12.216 -39.210   9.357  0.00  0.00    +0.000 HD
ATOM     32 HE22 GLN D   4     -12.363 -39.307  11.111  0.00  0.00    +0.000 HD
ATOM     33  N   NME D   5     -11.075 -37.019  12.333  0.00  0.00    +0.000 N 
ATOM     34  H   NME D   5     -11.145 -36.929  11.328  0.00  0.00    +0.000 HD
ATOM     35  C   NME D   5     -12.231 -36.729  13.174  0.00  0.00    +0.000 C 
TER 
REMARK  Name = /home/xianyang/aimnet2_score_pipelines/work/L1234-fixed-receptor-eint-20260921/L2/Q06187/prepared.pdb
REMARK                            x       y       z     vdW  Elec       q    Type
REMARK                         _______ _______ _______ _____ _____    ______ ____
ATOM      1  CH3 ACE E   1     -19.686 -28.307  22.030  0.00  0.00    +0.000 C 
ATOM      2  C   ACE E   1     -18.316 -28.960  22.173  0.00  0.00    +0.000 C 
ATOM      3  O   ACE E   1     -17.307 -28.276  22.395  0.00  0.00    +0.000 OA
ATOM      4  N   PHE E   2     -18.270 -30.289  22.068  0.00  0.00    +0.000 N 
ATOM      5  H   PHE E   2     -19.113 -30.799  21.859  0.00  0.00    +0.000 HD
ATOM      6  CA  PHE E   2     -17.001 -31.011  22.009  0.00  0.00    +0.000 C 
ATOM      7  C   PHE E   2     -16.757 -31.494  20.586  0.00  0.00    +0.000 C 
ATOM      8  O   PHE E   2     -17.686 -31.952  19.912  0.00  0.00    +0.000 OA
ATOM      9  CB  PHE E   2     -16.987 -32.278  22.875  0.00  0.00    +0.000 C 
ATOM     10  CG  PHE E   2     -17.264 -32.062  24.351  0.00  0.00    +0.000 A 
ATOM     11  CD1 PHE E   2     -17.165 -30.817  24.950  0.00  0.00    +0.000 A 
ATOM     12  CD2 PHE E   2     -17.588 -33.158  25.139  0.00  0.00    +0.000 A 
ATOM     13  CE1 PHE E   2     -17.410 -30.664  26.327  0.00  0.00    +0.000 A 
ATOM     14  CE2 PHE E   2     -17.831 -33.011  26.509  0.00  0.00    +0.000 A 
ATOM     15  CZ  PHE E   2     -17.740 -31.768  27.095  0.00  0.00    +0.000 A 
ATOM     16  N   ILE E   3     -15.503 -31.424  20.140  0.00  0.00    +0.000 N 
ATOM     17  H   ILE E   3     -14.804 -30.979  20.727  0.00  0.00    +0.000 HD
ATOM     18  CA  ILE E   3     -15.054 -32.157  18.964  0.00  0.00    +0.000 C 
ATOM     19  C   ILE E   3     -13.976 -33.149  19.406  0.00  0.00    +0.000 C 
ATOM     20  O   ILE E   3     -13.109 -32.815  20.225  0.00  0.00    +0.000 OA
ATOM     21  CB  ILE E   3     -14.598 -31.211  17.821  0.00  0.00    +0.000 C 
ATOM     22  CG1 ILE E   3     -14.246 -32.006  16.570  0.00  0.00    +0.000 C 
ATOM     23  CG2 ILE E   3     -13.435 -30.308  18.274  0.00  0.00    +0.000 C 
ATOM     24  CD1 ILE E   3     -14.179 -31.135  15.292  0.00  0.00    +0.000 C 
ATOM     25  N   ILE E   4     -14.046 -34.373  18.884  0.00  0.00    +0.000 N 
ATOM     26  H   ILE E   4     -14.746 -34.568  18.184  0.00  0.00    +0.000 HD
ATOM     27  CA  ILE E   4     -13.210 -35.491  19.331  0.00  0.00    +0.000 C 
ATOM     28  C   ILE E   4     -12.414 -36.006  18.144  0.00  0.00    +0.000 C 
ATOM     29  O   ILE E   4     -12.995 -36.419  17.126  0.00  0.00    +0.000 OA
ATOM     30  CB  ILE E   4     -14.050 -36.627  19.950  0.00  0.00    +0.000 C 
ATOM     31  CG1 ILE E   4     -14.852 -36.134  21.168  0.00  0.00    +0.000 C 
ATOM     32  CG2 ILE E   4     -13.150 -37.787  20.360  0.00  0.00    +0.000 C 
ATOM     33  CD1 ILE E   4     -16.213 -35.519  20.846  0.00  0.00    +0.000 C 
ATOM     34  N   THR E   5     -11.087 -35.978  18.261  0.00  0.00    +0.000 N 
ATOM     35  H   THR E   5     -10.663 -35.650  19.125  0.00  0.00    +0.000 HD
ATOM     36  CA  THR E   5     -10.221 -36.354  17.153  0.00  0.00    +0.000 C 
ATOM     37  C   THR E   5      -9.118 -37.303  17.603  0.00  0.00    +0.000 C 
ATOM     38  O   THR E   5      -8.884 -37.536  18.800  0.00  0.00    +0.000 OA
ATOM     39  CB  THR E   5      -9.561 -35.139  16.465  0.00  0.00    +0.000 C 
ATOM     40  OG1 THR E   5      -8.528 -34.613  17.315  0.00  0.00    +0.000 OA
ATOM     41  HG1 THR E   5      -7.788 -35.244  17.333  0.00  0.00    +0.000 HD
ATOM     42  CG2 THR E   5     -10.576 -34.037  16.156  0.00  0.00    +0.000 C 
ATOM     43  N   GLU E   6      -8.416 -37.821  16.597  0.00  0.00    +0.000 N 
ATOM     44  H   GLU E   6      -8.706 -37.632  15.641  0.00  0.00    +0.000 HD
ATOM     45  CA  GLU E   6      -7.200 -38.586  16.800  0.00  0.00    +0.000 C 
ATOM     46  C   GLU E   6      -6.256 -37.818  17.720  0.00  0.00    +0.000 C 
ATOM     47  O   GLU E   6      -6.081 -36.603  17.583  0.00  0.00    +0.000 OA
ATOM     48  CB  GLU E   6      -6.584 -38.796  15.416  0.00  0.00    +0.000 C 
ATOM     49  CG  GLU E   6      -5.189 -39.352  15.366  0.00  0.00    +0.000 C 
ATOM     50  CD  GLU E   6      -4.715 -39.559  13.920  0.00  0.00    +0.000 C 
ATOM     51  OE1 GLU E   6      -5.373 -39.046  12.986  0.00  0.00    +0.000 OA
ATOM     52  OE2 GLU E   6      -3.673 -40.219  13.726  0.00  0.00    +0.000 OA
ATOM     53  N   TYR E   7      -5.675 -38.531  18.688  0.00  0.00    +0.000 N 
ATOM     54  H   TYR E   7      -5.832 -39.526  18.731  0.00  0.00    +0.000 HD
ATOM     55  CA  TYR E   7      -4.781 -37.926  19.672  0.00  0.00    +0.000 C 
ATOM     56  C   TYR E   7      -3.355 -37.845  19.139  0.00  0.00    +0.000 C 
ATOM     57  O   TYR E   7      -2.797 -38.840  18.675  0.00  0.00    +0.000 OA
ATOM     58  CB  TYR E   7      -4.786 -38.750  20.960  0.00  0.00    +0.000 C 
ATOM     59  CG  TYR E   7      -3.941 -38.155  22.059  0.00  0.00    +0.000 A 
ATOM     60  CD1 TYR E   7      -4.113 -36.842  22.441  0.00  0.00    +0.000 A 
ATOM     61  CD2 TYR E   7      -2.961 -38.902  22.701  0.00  0.00    +0.000 A 
ATOM     62  CE1 TYR E   7      -3.336 -36.273  23.438  0.00  0.00    +0.000 A 
ATOM     63  CE2 TYR E   7      -2.179 -38.333  23.709  0.00  0.00    +0.000 A 
ATOM     64  CZ  TYR E   7      -2.390 -37.023  24.066  0.00  0.00    +0.000 A 
ATOM     65  OH  TYR E   7      -1.643 -36.409  25.051  0.00  0.00    +0.000 OA
ATOM     66  HH  TYR E   7      -1.896 -35.504  25.196  0.00  0.00    +0.000 HD
ATOM     67  N   MET E   8      -2.778 -36.655  19.205  0.00  0.00    +0.000 N 
ATOM     68  H   MET E   8      -3.315 -35.884  19.568  0.00  0.00    +0.000 HD
ATOM     69  CA  MET E   8      -1.405 -36.393  18.769  0.00  0.00    +0.000 C 
ATOM     70  C   MET E   8      -0.541 -36.110  19.994  0.00  0.00    +0.000 C 
ATOM     71  O   MET E   8      -0.439 -34.975  20.451  0.00  0.00    +0.000 OA
ATOM     72  CB  MET E   8      -1.395 -35.257  17.753  0.00  0.00    +0.000 C 
ATOM     73  CG  MET E   8      -2.343 -35.405  16.543  0.00  0.00    +0.000 C 
ATOM     74  SD  MET E   8      -1.900 -36.840  15.513  0.00  0.00    +0.000 S 
ATOM     75  CE  MET E   8      -0.577 -36.079  14.607  0.00  0.00    +0.000 C 
ATOM     76  N   ALA E   9       0.111 -37.164  20.503  0.00  0.00    +0.000 N 
ATOM     77  H   ALA E   9      -0.052 -38.069  20.088  0.00  0.00    +0.000 HD
ATOM     78  CA  ALA E   9       0.694 -37.115  21.843  0.00  0.00    +0.000 C 
ATOM     79  C   ALA E   9       1.904 -36.194  21.936  0.00  0.00    +0.000 C 
ATOM     80  O   ALA E   9       2.229 -35.710  23.027  0.00  0.00    +0.000 OA
ATOM     81  CB  ALA E   9       1.096 -38.522  22.282  0.00  0.00    +0.000 C 
ATOM     82  N   ASN E  10       2.597 -35.955  20.828  0.00  0.00    +0.000 N 
ATOM     83  H   ASN E  10       2.249 -36.279  19.934  0.00  0.00    +0.000 HD
ATOM     84  CA  ASN E  10       3.745 -35.059  20.841  0.00  0.00    +0.000 C 
ATOM     85  C   ASN E  10       3.381 -33.621  20.519  0.00  0.00    +0.000 C 
ATOM     86  O   ASN E  10       4.277 -32.771  20.439  0.00  0.00    +0.000 OA
ATOM     87  CB  ASN E  10       4.880 -35.588  19.960  0.00  0.00    +0.000 C 
ATOM     88  CG  ASN E  10       5.723 -36.611  20.678  0.00  0.00    +0.000 C 
ATOM     89  OD1 ASN E  10       6.195 -36.357  21.789  0.00  0.00    +0.000 OA
ATOM     90  ND2 ASN E  10       5.926 -37.763  20.055  0.00  0.00    +0.000 N 
ATOM     91 HD21 ASN E  10       6.466 -38.445  20.556  0.00  0.00    +0.000 HD
ATOM     92 HD22 ASN E  10       5.553 -37.916  19.139  0.00  0.00    +0.000 HD
ATOM     93  N   GLY E  11       2.089 -33.328  20.368  0.00  0.00    +0.000 N 
ATOM     94  H   GLY E  11       1.398 -34.067  20.416  0.00  0.00    +0.000 HD
ATOM     95  CA  GLY E  11       1.644 -31.956  20.350  0.00  0.00    +0.000 C 
ATOM     96  C   GLY E  11       2.041 -31.199  19.093  0.00  0.00    +0.000 C 
ATOM     97  O   GLY E  11       2.229 -31.754  18.000  0.00  0.00    +0.000 OA
ATOM     98  N   CYS E  12       2.142 -29.896  19.249  0.00  0.00    +0.000 N 
ATOM     99  H   CYS E  12       2.036 -29.508  20.170  0.00  0.00    +0.000 HD
ATOM    100  CA  CYS E  12       2.405 -29.006  18.133  0.00  0.00    +0.000 C 
ATOM    101  C   CYS E  12       3.830 -29.199  17.602  0.00  0.00    +0.000 C 
ATOM    102  O   CYS E  12       4.781 -29.313  18.393  0.00  0.00    +0.000 OA
ATOM    103  CB  CYS E  12       2.200 -27.597  18.671  0.00  0.00    +0.000 C 
ATOM    104  SG  CYS E  12       2.858 -26.299  17.727  0.00  0.00    +0.000 S 
ATOM    105  HG  CYS E  12       3.333 -25.576  18.750  0.00  0.00    +0.000 HD
ATOM    106  N   LEU E  13       3.977 -29.228  16.273  0.00  0.00    +0.000 N 
ATOM    107  H   LEU E  13       3.155 -29.127  15.684  0.00  0.00    +0.000 HD
ATOM    108  CA  LEU E  13       5.279 -29.485  15.658  0.00  0.00    +0.000 C 
ATOM    109  C   LEU E  13       6.314 -28.451  16.068  0.00  0.00    +0.000 C 
ATOM    110  O   LEU E  13       7.476 -28.795  16.280  0.00  0.00    +0.000 OA
ATOM    111  CB  LEU E  13       5.146 -29.524  14.137  0.00  0.00    +0.000 C 
ATOM    112  CG  LEU E  13       6.446 -29.655  13.335  0.00  0.00    +0.000 C 
ATOM    113  CD1 LEU E  13       7.163 -30.976  13.661  0.00  0.00    +0.000 C 
ATOM    114  CD2 LEU E  13       6.144 -29.551  11.853  0.00  0.00    +0.000 C 
ATOM    115  N   LEU E  14       5.928 -27.178  16.152  0.00  0.00    +0.000 N 
ATOM    116  H   LEU E  14       4.967 -26.939  15.943  0.00  0.00    +0.000 HD
ATOM    117  CA  LEU E  14       6.896 -26.148  16.524  0.00  0.00    +0.000 C 
ATOM    118  C   LEU E  14       7.531 -26.452  17.877  0.00  0.00    +0.000 C 
ATOM    119  O   LEU E  14       8.761 -26.402  18.027  0.00  0.00    +0.000 OA
ATOM    120  CB  LEU E  14       6.232 -24.772  16.521  0.00  0.00    +0.000 C 
ATOM    121  CG  LEU E  14       7.202 -23.614  16.800  0.00  0.00    +0.000 C 
ATOM    122  CD1 LEU E  14       8.305 -23.557  15.747  0.00  0.00    +0.000 C 
ATOM    123  CD2 LEU E  14       6.416 -22.308  16.807  0.00  0.00    +0.000 C 
ATOM    124  N   ASN E  15       6.717 -26.808  18.867  0.00  0.00    +0.000 N 
ATOM    125  H   ASN E  15       5.735 -26.929  18.685  0.00  0.00    +0.000 HD
ATOM    126  CA  ASN E  15       7.263 -27.110  20.186  0.00  0.00    +0.000 C 
ATOM    127  C   ASN E  15       8.086 -28.392  20.159  0.00  0.00    +0.000 C 
ATOM    128  O   ASN E  15       9.140 -28.470  20.798  0.00  0.00    +0.000 OA
ATOM    129  CB  ASN E  15       6.124 -27.218  21.205  0.00  0.00    +0.000 C 
ATOM    130  CG  ASN E  15       5.450 -25.892  21.456  0.00  0.00    +0.000 C 
ATOM    131  OD1 ASN E  15       5.954 -24.839  21.053  0.00  0.00    +0.000 OA
ATOM    132  ND2 ASN E  15       4.291 -25.931  22.114  0.00  0.00    +0.000 N 
ATOM    133 HD21 ASN E  15       3.948 -26.796  22.486  0.00  0.00    +0.000 HD
ATOM    134 HD22 ASN E  15       3.867 -25.042  22.317  0.00  0.00    +0.000 HD
ATOM    135  N   TYR E  16       7.638 -29.391  19.401  0.00  0.00    +0.000 N 
ATOM    136  H   TYR E  16       6.761 -29.284  18.905  0.00  0.00    +0.000 HD
ATOM    137  CA  TYR E  16       8.362 -30.652  19.276  0.00  0.00    +0.000 C 
ATOM    138  C   TYR E  16       9.759 -30.435  18.705  0.00  0.00    +0.000 C 
ATOM    139  O   TYR E  16      10.750 -30.984  19.211  0.00  0.00    +0.000 OA
ATOM    140  CB  TYR E  16       7.540 -31.592  18.394  0.00  0.00    +0.000 C 
ATOM    141  CG  TYR E  16       8.089 -32.988  18.256  0.00  0.00    +0.000 A 
ATOM    142  CD1 TYR E  16       8.062 -33.871  19.326  0.00  0.00    +0.000 A 
ATOM    143  CD2 TYR E  16       8.591 -33.432  17.045  0.00  0.00    +0.000 A 
ATOM    144  CE1 TYR E  16       8.555 -35.157  19.195  0.00  0.00    +0.000 A 
ATOM    145  CE2 TYR E  16       9.077 -34.721  16.907  0.00  0.00    +0.000 A 
ATOM    146  CZ  TYR E  16       9.041 -35.570  17.984  0.00  0.00    +0.000 A 
ATOM    147  OH  TYR E  16       9.531 -36.854  17.867  0.00  0.00    +0.000 OA
ATOM    148  HH  TYR E  16       9.677 -37.247  18.727  0.00  0.00    +0.000 HD
ATOM    149  N   NME E  17       9.861 -29.635  17.638  0.00  0.00    +0.000 N 
ATOM    150  H   NME E  17       9.028 -29.184  17.276  0.00  0.00    +0.000 HD
ATOM    151  C   NME E  17      11.161 -29.347  17.036  0.00  0.00    +0.000 C 
TER 
REMARK  Name = /home/xianyang/aimnet2_score_pipelines/work/L1234-fixed-receptor-eint-20260921/L2/Q06187/prepared.pdb
REMARK                            x       y       z     vdW  Elec       q    Type
REMARK                         _______ _______ _______ _____ _____    ______ ____
ATOM      1  CH3 ACE F   1       0.517 -23.662   6.967  0.00  0.00    +0.000 C 
ATOM      2  C   ACE F   1       1.801 -23.137   7.598  0.00  0.00    +0.000 C 
ATOM      3  O   ACE F   1       2.382 -22.160   7.119  0.00  0.00    +0.000 OA
ATOM      4  N   ALA F   2       2.228 -23.777   8.687  0.00  0.00    +0.000 N 
ATOM      5  H   ALA F   2       1.718 -24.598   8.983  0.00  0.00    +0.000 HD
ATOM      6  CA  ALA F   2       3.347 -23.369   9.526  0.00  0.00    +0.000 C 
ATOM      7  C   ALA F   2       3.502 -24.456  10.578  0.00  0.00    +0.000 C 
ATOM      8  O   ALA F   2       2.554 -25.199  10.858  0.00  0.00    +0.000 OA
ATOM      9  CB  ALA F   2       3.052 -22.032  10.218  0.00  0.00    +0.000 C 
ATOM     10  N   ALA F   3       4.695 -24.545  11.169  0.00  0.00    +0.000 N 
ATOM     11  H   ALA F   3       5.469 -23.981  10.851  0.00  0.00    +0.000 HD
ATOM     12  CA  ALA F   3       4.922 -25.586  12.173  0.00  0.00    +0.000 C 
ATOM     13  C   ALA F   3       3.959 -25.472  13.348  0.00  0.00    +0.000 C 
ATOM     14  O   ALA F   3       3.581 -26.493  13.943  0.00  0.00    +0.000 OA
ATOM     15  CB  ALA F   3       6.379 -25.558  12.647  0.00  0.00    +0.000 C 
ATOM     16  N   ARG F   4       3.542 -24.248  13.701  0.00  0.00    +0.000 N 
ATOM     17  H   ARG F   4       3.917 -23.449  13.218  0.00  0.00    +0.000 HD
ATOM     18  CA  ARG F   4       2.606 -24.073  14.811  0.00  0.00    +0.000 C 
ATOM     19  C   ARG F   4       1.245 -24.694  14.538  0.00  0.00    +0.000 C 
ATOM     20  O   ARG F   4       0.483 -24.898  15.491  0.00  0.00    +0.000 OA
ATOM     21  CB  ARG F   4       2.420 -22.589  15.132  0.00  0.00    +0.000 C 
ATOM     22  CG  ARG F   4       1.826 -21.784  13.974  0.00  0.00    +0.000 C 
ATOM     23  CD  ARG F   4       1.593 -20.313  14.346  0.00  0.00    +0.000 C 
ATOM     24  NE  ARG F   4       1.140 -19.559  13.183  0.00  0.00    +0.000 N 
ATOM     25  HE  ARG F   4       0.150 -19.413  13.081  0.00  0.00    +0.000 HD
ATOM     26  CZ  ARG F   4       1.940 -19.131  12.219  0.00  0.00    +0.000 C 
ATOM     27  NH1 ARG F   4       3.260 -19.247  12.309  0.00  0.00    +0.000 N 
ATOM     28 HH11 ARG F   4       3.846 -18.858  11.591  0.00  0.00    +0.000 HD
ATOM     29 HH12 ARG F   4       3.658 -19.559  13.175  0.00  0.00    +0.000 HD
ATOM     30  NH2 ARG F   4       1.404 -18.577  11.132  0.00  0.00    +0.000 N 
ATOM     31 HH21 ARG F   4       1.993 -18.303  10.364  0.00  0.00    +0.000 HD
ATOM     32 HH22 ARG F   4       0.420 -18.383  11.088  0.00  0.00    +0.000 HD
ATOM     33  N   ASN F   5       0.935 -25.006  13.280  0.00  0.00    +0.000 N 
ATOM     34  H   ASN F   5       1.638 -24.901  12.564  0.00  0.00    +0.000 HD
ATOM     35  CA  ASN F   5      -0.343 -25.590  12.891  0.00  0.00    +0.000 C 
ATOM     36  C   ASN F   5      -0.223 -27.036  12.417  0.00  0.00    +0.000 C 
ATOM     37  O   ASN F   5      -1.138 -27.548  11.753  0.00  0.00    +0.000 OA
ATOM     38  CB  ASN F   5      -1.022 -24.718  11.837  0.00  0.00    +0.000 C 
ATOM     39  CG  ASN F   5      -1.522 -23.420  12.422  0.00  0.00    +0.000 C 
ATOM     40  OD1 ASN F   5      -1.955 -23.376  13.579  0.00  0.00    +0.000 OA
ATOM     41  ND2 ASN F   5      -1.462 -22.348  11.648  0.00  0.00    +0.000 N 
ATOM     42 HD21 ASN F   5      -1.911 -21.529  12.013  0.00  0.00    +0.000 HD
ATOM     43 HD22 ASN F   5      -1.200 -22.446  10.684  0.00  0.00    +0.000 HD
ATOM     44  N   CYS F   6       0.871 -27.707  12.737  0.00  0.00    +0.000 N 
ATOM     45  H   CYS F   6       1.563 -27.265  13.329  0.00  0.00    +0.000 HD
ATOM     46  CA  CYS F   6       1.008 -29.137  12.511  0.00  0.00    +0.000 C 
ATOM     47  C   CYS F   6       1.110 -29.838  13.857  0.00  0.00    +0.000 C 
ATOM     48  O   CYS F   6       1.494 -29.234  14.859  0.00  0.00    +0.000 OA
ATOM     49  CB  CYS F   6       2.246 -29.457  11.663  0.00  0.00    +0.000 C 
ATOM     50  SG  CYS F   6       2.261 -28.709  10.019  0.00  0.00    +0.000 S 
ATOM     51  HG  CYS F   6       2.067 -27.447  10.430  0.00  0.00    +0.000 HD
ATOM     52  N   LEU F   7       0.766 -31.128  13.864  0.00  0.00    +0.000 N 
ATOM     53  H   LEU F   7       0.512 -31.590  12.993  0.00  0.00    +0.000 HD
ATOM     54  CA  LEU F   7       0.753 -31.926  15.088  0.00  0.00    +0.000 C 
ATOM     55  C   LEU F   7       1.587 -33.187  14.885  0.00  0.00    +0.000 C 
ATOM     56  O   LEU F   7       1.792 -33.641  13.758  0.00  0.00    +0.000 OA
ATOM     57  CB  LEU F   7      -0.695 -32.297  15.449  0.00  0.00    +0.000 C 
ATOM     58  CG  LEU F   7      -1.563 -31.126  15.925  0.00  0.00    +0.000 C 
ATOM     59  CD1 LEU F   7      -3.043 -31.492  15.810  0.00  0.00    +0.000 C 
ATOM     60  CD2 LEU F   7      -1.182 -30.744  17.362  0.00  0.00    +0.000 C 
ATOM     61  N   VAL F   8       2.057 -33.772  15.998  0.00  0.00    +0.000 N 
ATOM     62  H   VAL F   8       1.921 -33.295  16.885  0.00  0.00    +0.000 HD
ATOM     63  CA  VAL F   8       2.969 -34.917  15.969  0.00  0.00    +0.000 C 
ATOM     64  C   VAL F   8       2.417 -36.005  16.889  0.00  0.00    +0.000 C 
ATOM     65  O   VAL F   8       2.090 -35.731  18.046  0.00  0.00    +0.000 OA
ATOM     66  CB  VAL F   8       4.389 -34.500  16.413  0.00  0.00    +0.000 C 
ATOM     67  CG1 VAL F   8       5.383 -35.645  16.204  0.00  0.00    +0.000 C 
ATOM     68  CG2 VAL F   8       4.848 -33.243  15.667  0.00  0.00    +0.000 C 
ATOM     69  N   NME F   9       2.311 -37.234  16.383  0.00  0.00    +0.000 N 
ATOM     70  H   NME F   9       2.544 -37.411  15.417  0.00  0.00    +0.000 HD
ATOM     71  C   NME F   9       1.812 -38.314  17.228  0.00  0.00    +0.000 C 
TER 
REMARK  Name = /home/xianyang/aimnet2_score_pipelines/work/L1234-fixed-receptor-eint-20260921/L2/Q06187/prepared.pdb
REMARK                            x       y       z     vdW  Elec       q    Type
REMARK                         _______ _______ _______ _____ _____    ______ ____
ATOM      1  CH3 ACE G   1      -0.180 -34.588  10.527  0.00  0.00    +0.000 C 
ATOM      2  C   ACE G   1      -0.690 -33.156  10.623  0.00  0.00    +0.000 C 
ATOM      3  O   ACE G   1      -0.253 -32.362  11.462  0.00  0.00    +0.000 OA
ATOM      4  N   VAL G   2      -1.646 -32.833   9.754  0.00  0.00    +0.000 N 
ATOM      5  H   VAL G   2      -1.943 -33.537   9.084  0.00  0.00    +0.000 HD
ATOM      6  CA  VAL G   2      -2.266 -31.510   9.714  0.00  0.00    +0.000 C 
ATOM      7  C   VAL G   2      -3.729 -31.662  10.123  0.00  0.00    +0.000 C 
ATOM      8  O   VAL G   2      -4.413 -32.552   9.617  0.00  0.00    +0.000 OA
ATOM      9  CB  VAL G   2      -2.163 -30.939   8.289  0.00  0.00    +0.000 C 
ATOM     10  CG1 VAL G   2      -2.875 -29.591   8.176  0.00  0.00    +0.000 C 
ATOM     11  CG2 VAL G   2      -0.694 -30.831   7.844  0.00  0.00    +0.000 C 
ATOM     12  N   SER G   3      -4.216 -30.813  11.047  0.00  0.00    +0.000 N 
ATOM     13  H   SER G   3      -3.621 -30.065  11.373  0.00  0.00    +0.000 HD
ATOM     14  CA  SER G   3      -5.654 -30.714  11.306  0.00  0.00    +0.000 C 
ATOM     15  C   SER G   3      -6.234 -29.715  10.316  0.00  0.00    +0.000 C 
ATOM     16  O   SER G   3      -5.688 -28.627  10.119  0.00  0.00    +0.000 OA
ATOM     17  CB  SER G   3      -5.993 -30.283  12.748  0.00  0.00    +0.000 C 
ATOM     18  OG  SER G   3      -7.424 -30.275  13.026  0.00  0.00    +0.000 OA
ATOM     19  HG  SER G   3      -7.581 -29.775  13.829  0.00  0.00    +0.000 HD
ATOM     20  N   ASP G   4      -7.322 -30.091   9.672  0.00  0.00    +0.000 N 
ATOM     21  H   ASP G   4      -7.728 -31.010   9.791  0.00  0.00    +0.000 HD
ATOM     22  CA  ASP G   4      -7.938 -29.160   8.743  0.00  0.00    +0.000 C 
ATOM     23  C   ASP G   4      -9.197 -28.519   9.307  0.00  0.00    +0.000 C 
ATOM     24  O   ASP G   4      -9.878 -27.795   8.581  0.00  0.00    +0.000 OA
ATOM     25  CB  ASP G   4      -8.193 -29.808   7.377  0.00  0.00    +0.000 C 
ATOM     26  CG  ASP G   4      -9.031 -31.061   7.465  0.00  0.00    +0.000 C 
ATOM     27  OD1 ASP G   4      -9.991 -31.073   8.253  0.00  0.00    +0.000 OA
ATOM     28  OD2 ASP G   4      -8.758 -32.028   6.720  0.00  0.00    +0.000 OA
ATOM     29  N   PHE G   5      -9.510 -28.751  10.581  0.00  0.00    +0.000 N 
ATOM     30  H   PHE G   5      -8.921 -29.360  11.128  0.00  0.00    +0.000 HD
ATOM     31  CA  PHE G   5     -10.781 -28.283  11.115  0.00  0.00    +0.000 C 
ATOM     32  C   PHE G   5     -10.855 -26.756  11.127  0.00  0.00    +0.000 C 
ATOM     33  O   PHE G   5      -9.996 -26.092  11.710  0.00  0.00    +0.000 OA
ATOM     34  CB  PHE G   5     -11.000 -28.807  12.535  0.00  0.00    +0.000 C 
ATOM     35  CG  PHE G   5     -12.264 -28.275  13.152  0.00  0.00    +0.000 A 
ATOM     36  CD1 PHE G   5     -13.502 -28.717  12.714  0.00  0.00    +0.000 A 
ATOM     37  CD2 PHE G   5     -12.214 -27.290  14.122  0.00  0.00    +0.000 A 
ATOM     38  CE1 PHE G   5     -14.677 -28.203  13.263  0.00  0.00    +0.000 A 
ATOM     39  CE2 PHE G   5     -13.393 -26.776  14.673  0.00  0.00    +0.000 A 
ATOM     40  CZ  PHE G   5     -14.613 -27.244  14.234  0.00  0.00    +0.000 A 
ATOM     41  N   GLY G   6     -11.909 -26.206  10.512  0.00  0.00    +0.000 N 
ATOM     42  H   GLY G   6     -12.544 -26.815  10.022  0.00  0.00    +0.000 HD
ATOM     43  CA  GLY G   6     -12.213 -24.790  10.618  0.00  0.00    +0.000 C 
ATOM     44  C   GLY G   6     -11.148 -23.842  10.108  0.00  0.00    +0.000 C 
ATOM     45  O   GLY G   6     -11.066 -22.707  10.585  0.00  0.00    +0.000 OA
ATOM     46  N   LEU G   7     -10.360 -24.256   9.114  0.00  0.00    +0.000 N 
ATOM     47  H   LEU G   7     -10.393 -25.229   8.831  0.00  0.00    +0.000 HD
ATOM     48  CA  LEU G   7      -9.226 -23.432   8.699  0.00  0.00    +0.000 C 
ATOM     49  C   LEU G   7      -9.665 -22.050   8.230  0.00  0.00    +0.000 C 
ATOM     50  O   LEU G   7      -8.971 -21.063   8.481  0.00  0.00    +0.000 OA
ATOM     51  CB  LEU G   7      -8.391 -24.145   7.638  0.00  0.00    +0.000 C 
ATOM     52  CG  LEU G   7      -7.285 -25.010   8.246  0.00  0.00    +0.000 C 
ATOM     53  CD1 LEU G   7      -6.644 -25.890   7.188  0.00  0.00    +0.000 C 
ATOM     54  CD2 LEU G   7      -6.237 -24.136   8.915  0.00  0.00    +0.000 C 
ATOM     55  N   SER G   8     -10.821 -21.956   7.564  0.00  0.00    +0.000 N 
ATOM     56  H   SER G   8     -11.362 -22.787   7.387  0.00  0.00    +0.000 HD
ATOM     57  CA  SER G   8     -11.296 -20.663   7.078  0.00  0.00    +0.000 C 
ATOM     58  C   SER G   8     -11.686 -19.720   8.208  0.00  0.00    +0.000 C 
ATOM     59  O   SER G   8     -11.795 -18.509   7.988  0.00  0.00    +0.000 OA
ATOM     60  CB  SER G   8     -12.480 -20.851   6.128  0.00  0.00    +0.000 C 
ATOM     61  OG  SER G   8     -13.666 -21.127   6.849  0.00  0.00    +0.000 OA
ATOM     62  HG  SER G   8     -14.123 -20.291   6.965  0.00  0.00    +0.000 HD
ATOM     63  N   ARG G   9     -11.868 -20.244   9.419  0.00  0.00    +0.000 N 
ATOM     64  H   ARG G   9     -11.669 -21.229   9.554  0.00  0.00    +0.000 HD
ATOM     65  CA  ARG G   9     -12.231 -19.453  10.580  0.00  0.00    +0.000 C 
ATOM     66  C   ARG G   9     -11.066 -19.213  11.526  0.00  0.00    +0.000 C 
ATOM     67  O   ARG G   9     -11.267 -18.644  12.599  0.00  0.00    +0.000 OA
ATOM     68  CB  ARG G   9     -13.386 -20.127  11.328  0.00  0.00    +0.000 C 
ATOM     69  CG  ARG G   9     -14.662 -20.229  10.493  0.00  0.00    +0.000 C 
ATOM     70  CD  ARG G   9     -15.801 -20.836  11.294  0.00  0.00    +0.000 C 
ATOM     71  NE  ARG G   9     -16.993 -21.007  10.469  0.00  0.00    +0.000 N 
ATOM     72  HE  ARG G   9     -17.075 -21.856   9.934  0.00  0.00    +0.000 HD
ATOM     73  CZ  ARG G   9     -17.950 -20.097  10.344  0.00  0.00    +0.000 C 
ATOM     74  NH1 ARG G   9     -17.885 -18.936  10.974  0.00  0.00    +0.000 N 
ATOM     75 HH11 ARG G   9     -18.628 -18.267  10.891  0.00  0.00    +0.000 HD
ATOM     76 HH12 ARG G   9     -17.079 -18.731  11.536  0.00  0.00    +0.000 HD
ATOM     77  NH2 ARG G   9     -19.000 -20.363   9.572  0.00  0.00    +0.000 N 
ATOM     78 HH21 ARG G   9     -19.677 -19.644   9.389  0.00  0.00    +0.000 HD
ATOM     79 HH22 ARG G   9     -19.129 -21.279   9.182  0.00  0.00    +0.000 HD
ATOM     80  N   TYR G  10      -9.852 -19.624  11.156  0.00  0.00    +0.000 N 
ATOM     81  H   TYR G  10      -9.705 -20.036  10.245  0.00  0.00    +0.000 HD
ATOM     82  CA  TYR G  10      -8.718 -19.406  12.043  0.00  0.00    +0.000 C 
ATOM     83  C   TYR G  10      -8.553 -17.919  12.331  0.00  0.00    +0.000 C 
ATOM     84  O   TYR G  10      -8.784 -17.066  11.465  0.00  0.00    +0.000 OA
ATOM     85  CB  TYR G  10      -7.432 -19.905  11.393  0.00  0.00    +0.000 C 
ATOM     86  CG  TYR G  10      -7.002 -21.315  11.739  0.00  0.00    +0.000 A 
ATOM     87  CD1 TYR G  10      -7.934 -22.309  12.043  0.00  0.00    +0.000 A 
ATOM     88  CD2 TYR G  10      -5.650 -21.658  11.745  0.00  0.00    +0.000 A 
ATOM     89  CE1 TYR G  10      -7.527 -23.606  12.348  0.00  0.00    +0.000 A 
ATOM     90  CE2 TYR G  10      -5.241 -22.941  12.048  0.00  0.00    +0.000 A 
ATOM     91  CZ  TYR G  10      -6.177 -23.912  12.346  0.00  0.00    +0.000 A 
ATOM     92  OH  TYR G  10      -5.740 -25.182  12.627  0.00  0.00    +0.000 OA
ATOM     93  HH  TYR G  10      -4.873 -25.361  12.260  0.00  0.00    +0.000 HD
ATOM     94  N   VAL G  11      -8.139 -17.618  13.551  0.00  0.00    +0.000 N 
ATOM     95  H   VAL G  11      -8.033 -18.375  14.221  0.00  0.00    +0.000 HD
ATOM     96  CA  VAL G  11      -7.800 -16.263  13.976  0.00  0.00    +0.000 C 
ATOM     97  C   VAL G  11      -6.287 -16.110  13.950  0.00  0.00    +0.000 C 
ATOM     98  O   VAL G  11      -5.564 -16.932  14.529  0.00  0.00    +0.000 OA
ATOM     99  CB  VAL G  11      -8.347 -15.984  15.384  0.00  0.00    +0.000 C 
ATOM    100  CG1 VAL G  11      -7.836 -14.642  15.900  0.00  0.00    +0.000 C 
ATOM    101  CG2 VAL G  11      -9.876 -16.018  15.369  0.00  0.00    +0.000 C 
ATOM    102  N   NME G  12      -5.802 -15.074  13.272  0.00  0.00    +0.000 N 
ATOM    103  H   NME G  12      -6.446 -14.468  12.786  0.00  0.00    +0.000 HD
ATOM    104  C   NME G  12      -4.373 -14.803  13.202  0.00  0.00    +0.000 C 
TER 
