REMARK  Name = /data/user_data/xianyang/t3-aimnet-affinity-balanced/L4/Q15726/pocket.pdb
REMARK                            x       y       z     vdW  Elec       q    Type
REMARK                         _______ _______ _______ _____ _____    ______ ____
ATOM      1  N   TRP A   1      -9.674   8.792   1.931  0.00  0.00    +0.000 N 
ATOM      2  CA  TRP A   1      -9.625   7.334   1.858  0.00  0.00    +0.000 C 
ATOM      3  C   TRP A   1     -10.793   6.786   1.053  0.00  0.00    +0.000 C 
ATOM      4  O   TRP A   1     -10.624   5.881   0.230  0.00  0.00    +0.000 OA
ATOM      5  CB  TRP A   1      -9.638   6.732   3.267  0.00  0.00    +0.000 C 
ATOM      6  CG  TRP A   1      -8.294   6.670   3.920  0.00  0.00    +0.000 C 
ATOM      7  CD1 TRP A   1      -7.869   7.370   5.012  0.00  0.00    +0.000 C 
ATOM      8  CD2 TRP A   1      -7.192   5.861   3.521  0.00  0.00    +0.000 A 
ATOM      9  NE1 TRP A   1      -6.572   7.044   5.310  0.00  0.00    +0.000 NA
ATOM     10  CE2 TRP A   1      -6.135   6.115   4.419  0.00  0.00    +0.000 A 
ATOM     11  CE3 TRP A   1      -7.001   4.930   2.487  0.00  0.00    +0.000 A 
ATOM     12  CZ2 TRP A   1      -4.902   5.475   4.310  0.00  0.00    +0.000 A 
ATOM     13  CZ3 TRP A   1      -5.772   4.295   2.387  0.00  0.00    +0.000 A 
ATOM     14  CH2 TRP A   1      -4.736   4.566   3.290  0.00  0.00    +0.000 A 
ATOM     15  H   TRP A   1      -9.665   9.180   0.988  0.00  0.00    +0.000 HD
ATOM     16  H   TRP A   1      -8.864   9.134   2.447  0.00  0.00    +0.000 HD
ATOM     17  H   TRP A   1     -10.528   9.080   2.409  0.00  0.00    +0.000 HD
TER 
REMARK  Name = /data/user_data/xianyang/t3-aimnet-affinity-balanced/L4/Q15726/pocket.pdb
REMARK                            x       y       z     vdW  Elec       q    Type
REMARK                         _______ _______ _______ _____ _____    ______ ____
ATOM      1  N   LEU B   1     -10.200   7.550  -2.630  0.00  0.00    +0.000 N 
ATOM      2  CA  LEU B   1      -9.133   6.714  -3.167  0.00  0.00    +0.000 C 
ATOM      3  C   LEU B   1      -9.617   5.287  -3.387  0.00  0.00    +0.000 C 
ATOM      4  O   LEU B   1      -9.340   4.678  -4.425  0.00  0.00    +0.000 OA
ATOM      5  CB  LEU B   1      -7.928   6.729  -2.224  0.00  0.00    +0.000 C 
ATOM      6  CG  LEU B   1      -6.749   5.849  -2.629  0.00  0.00    +0.000 C 
ATOM      7  CD1 LEU B   1      -6.216   6.252  -3.998  0.00  0.00    +0.000 C 
ATOM      8  CD2 LEU B   1      -5.644   5.955  -1.584  0.00  0.00    +0.000 C 
ATOM      9  N   LEU B   2     -10.343   4.741  -2.424  0.00  0.00    +0.000 N 
ATOM     10  CA  LEU B   2     -10.864   3.387  -2.561  0.00  0.00    +0.000 C 
ATOM     11  C   LEU B   2     -11.869   3.301  -3.698  0.00  0.00    +0.000 C 
ATOM     12  O   LEU B   2     -11.912   2.305  -4.422  0.00  0.00    +0.000 OA
ATOM     13  CB  LEU B   2     -11.503   2.933  -1.248  0.00  0.00    +0.000 C 
ATOM     14  CG  LEU B   2     -10.520   2.689  -0.102  0.00  0.00    +0.000 C 
ATOM     15  CD2 LEU B   2     -11.266   2.533   1.217  0.00  0.00    +0.000 C 
ATOM     16  CD1 LEU B   2      -9.663   1.459  -0.394  0.00  0.00    +0.000 C 
ATOM     17  H   LEU B   1     -10.998   7.533  -3.265  0.00  0.00    +0.000 HD
ATOM     18  H   LEU B   1      -9.864   8.508  -2.531  0.00  0.00    +0.000 HD
ATOM     19  H   LEU B   1     -10.485   7.194  -1.718  0.00  0.00    +0.000 HD
ATOM     20  H   LEU B   2     -10.533   5.255  -1.606  0.00  0.00    +0.000 HD
TER 
REMARK  Name = /data/user_data/xianyang/t3-aimnet-affinity-balanced/L4/Q15726/pocket.pdb
REMARK                            x       y       z     vdW  Elec       q    Type
REMARK                         _______ _______ _______ _____ _____    ______ ____
ATOM      1  N   CYS C   1      -9.889   3.317  -6.947  0.00  0.00    +0.000 N 
ATOM      2  CA  CYS C   1      -9.221   2.034  -7.128  0.00  0.00    +0.000 C 
ATOM      3  C   CYS C   1     -10.209   0.947  -7.518  0.00  0.00    +0.000 C 
ATOM      4  O   CYS C   1      -9.906   0.090  -8.356  0.00  0.00    +0.000 OA
ATOM      5  CB  CYS C   1      -8.479   1.637  -5.848  0.00  0.00    +0.000 C 
ATOM      6  SG  CYS C   1      -7.073   2.697  -5.446  0.00  0.00    +0.000 S 
ATOM      7  H   CYS C   1     -10.379   3.569  -7.805  0.00  0.00    +0.000 HD
ATOM      8  H   CYS C   1      -9.196   4.033  -6.727  0.00  0.00    +0.000 HD
ATOM      9  H   CYS C   1     -10.559   3.246  -6.181  0.00  0.00    +0.000 HD
ATOM     10  H   CYS C   1      -6.144   2.613  -6.436  0.00  0.00    +0.000 HD
TER 
REMARK  Name = /data/user_data/xianyang/t3-aimnet-affinity-balanced/L4/Q15726/pocket.pdb
REMARK                            x       y       z     vdW  Elec       q    Type
REMARK                         _______ _______ _______ _____ _____    ______ ____
ATOM      1  N   ARG D   1      -0.051 -11.951   1.317  0.00  0.00    +0.000 N 
ATOM      2  CA  ARG D   1       1.124 -11.095   1.280  0.00  0.00    +0.000 C 
ATOM      3  C   ARG D   1       1.068 -10.088   2.427  0.00  0.00    +0.000 C 
ATOM      4  O   ARG D   1       0.340  -9.096   2.348  0.00  0.00    +0.000 OA
ATOM      5  CB  ARG D   1       1.201 -10.376  -0.076  0.00  0.00    +0.000 C 
ATOM      6  CG  ARG D   1       2.511  -9.638  -0.319  0.00  0.00    +0.000 C 
ATOM      7  CD  ARG D   1       2.479  -8.914  -1.649  0.00  0.00    +0.000 C 
ATOM      8  NE  ARG D   1       2.361  -9.835  -2.785  0.00  0.00    +0.000 N 
ATOM      9  CZ  ARG D   1       3.343 -10.121  -3.622  0.00  0.00    +0.000 C 
ATOM     10  NH2 ARG D   1       4.531  -9.579  -3.473  0.00  0.00    +0.000 N 
ATOM     11  NH1 ARG D   1       3.130 -10.952  -4.627  0.00  0.00    +0.000 N 
ATOM     12  H   ARG D   1      -0.008 -12.621   0.549  0.00  0.00    +0.000 HD
ATOM     13  H   ARG D   1      -0.891 -11.380   1.223  0.00  0.00    +0.000 HD
ATOM     14  H   ARG D   1      -0.078 -12.453   2.205  0.00  0.00    +0.000 HD
ATOM     15  H   ARG D   1       1.490 -10.270  -2.934  0.00  0.00    +0.000 HD
ATOM     16  H   ARG D   1       5.255  -9.799  -4.103  0.00  0.00    +0.000 HD
ATOM     17  H   ARG D   1       4.697  -8.953  -2.732  0.00  0.00    +0.000 HD
ATOM     18  H   ARG D   1       3.860 -11.166  -5.252  0.00  0.00    +0.000 HD
ATOM     19  H   ARG D   1       2.241 -11.357  -4.751  0.00  0.00    +0.000 HD
TER 
REMARK  Name = /data/user_data/xianyang/t3-aimnet-affinity-balanced/L4/Q15726/pocket.pdb
REMARK                            x       y       z     vdW  Elec       q    Type
REMARK                         _______ _______ _______ _____ _____    ______ ____
ATOM      1  N   THR E   1       2.333  -7.264   3.580  0.00  0.00    +0.000 N 
ATOM      2  CA  THR E   1       3.164  -6.128   3.202  0.00  0.00    +0.000 C 
ATOM      3  C   THR E   1       3.630  -5.340   4.420  0.00  0.00    +0.000 C 
ATOM      4  O   THR E   1       4.772  -4.879   4.478  0.00  0.00    +0.000 OA
ATOM      5  CB  THR E   1       2.400  -5.209   2.238  0.00  0.00    +0.000 C 
ATOM      6  OG1 THR E   1       1.978  -5.965   1.097  0.00  0.00    +0.000 OA
ATOM      7  CG2 THR E   1       3.290  -4.068   1.776  0.00  0.00    +0.000 C 
ATOM      8  H   THR E   1       2.041  -7.766   2.741  0.00  0.00    +0.000 HD
ATOM      9  H   THR E   1       1.509  -6.931   4.081  0.00  0.00    +0.000 HD
ATOM     10  H   THR E   1       2.867  -7.890   4.182  0.00  0.00    +0.000 HD
ATOM     11  H   THR E   1       2.755  -6.326   0.643  0.00  0.00    +0.000 HD
TER 
REMARK  Name = /data/user_data/xianyang/t3-aimnet-affinity-balanced/L4/Q15726/pocket.pdb
REMARK                            x       y       z     vdW  Elec       q    Type
REMARK                         _______ _______ _______ _____ _____    ______ ____
ATOM      1  N   GLN F   1       6.538  -7.018   5.856  0.00  0.00    +0.000 N 
ATOM      2  CA  GLN F   1       7.707  -6.850   4.999  0.00  0.00    +0.000 C 
ATOM      3  C   GLN F   1       8.348  -5.483   5.216  0.00  0.00    +0.000 C 
ATOM      4  O   GLN F   1       9.574  -5.363   5.309  0.00  0.00    +0.000 OA
ATOM      5  CB  GLN F   1       7.309  -7.017   3.532  0.00  0.00    +0.000 C 
ATOM      6  CG  GLN F   1       6.808  -8.409   3.184  0.00  0.00    +0.000 C 
ATOM      7  CD  GLN F   1       6.319  -8.499   1.758  0.00  0.00    +0.000 C 
ATOM      8  OE1 GLN F   1       6.565  -7.617   0.937  0.00  0.00    +0.000 OA
ATOM      9  NE2 GLN F   1       5.617  -9.572   1.436  0.00  0.00    +0.000 N 
ATOM     10  N   LEU F   2       7.535  -4.438   5.302  0.00  0.00    +0.000 N 
ATOM     11  CA  LEU F   2       8.054  -3.101   5.552  0.00  0.00    +0.000 C 
ATOM     12  C   LEU F   2       8.694  -3.017   6.932  0.00  0.00    +0.000 C 
ATOM     13  O   LEU F   2       9.743  -2.397   7.109  0.00  0.00    +0.000 OA
ATOM     14  CB  LEU F   2       6.926  -2.066   5.435  0.00  0.00    +0.000 C 
ATOM     15  CG  LEU F   2       6.343  -1.867   4.038  0.00  0.00    +0.000 C 
ATOM     16  CD2 LEU F   2       5.109  -0.971   4.109  0.00  0.00    +0.000 C 
ATOM     17  CD1 LEU F   2       7.385  -1.266   3.108  0.00  0.00    +0.000 C 
ATOM     18  H   GLN F   1       6.127  -7.937   5.694  0.00  0.00    +0.000 HD
ATOM     19  H   GLN F   1       5.851  -6.296   5.640  0.00  0.00    +0.000 HD
ATOM     20  H   GLN F   1       6.819  -6.939   6.833  0.00  0.00    +0.000 HD
ATOM     21  H   GLN F   1       5.275  -9.679   0.519  0.00  0.00    +0.000 HD
ATOM     22  H   GLN F   1       5.436 -10.264   2.113  0.00  0.00    +0.000 HD
ATOM     23  H   LEU F   2       6.565  -4.569   5.195  0.00  0.00    +0.000 HD
TER 
REMARK  Name = /data/user_data/xianyang/t3-aimnet-affinity-balanced/L4/Q15726/pocket.pdb
REMARK                            x       y       z     vdW  Elec       q    Type
REMARK                         _______ _______ _______ _____ _____    ______ ____
ATOM      1  N   LEU G   1      12.109  -4.566   7.078  0.00  0.00    +0.000 N 
ATOM      2  CA  LEU G   1      13.121  -3.745   6.432  0.00  0.00    +0.000 C 
ATOM      3  C   LEU G   1      13.434  -2.487   7.238  0.00  0.00    +0.000 C 
ATOM      4  O   LEU G   1      14.331  -1.723   6.870  0.00  0.00    +0.000 OA
ATOM      5  CB  LEU G   1      12.660  -3.363   5.024  0.00  0.00    +0.000 C 
ATOM      6  CG  LEU G   1      13.710  -2.783   4.075  0.00  0.00    +0.000 C 
ATOM      7  CD2 LEU G   1      14.848  -3.767   3.855  0.00  0.00    +0.000 C 
ATOM      8  CD1 LEU G   1      13.058  -2.414   2.744  0.00  0.00    +0.000 C 
ATOM      9  H   LEU G   1      11.929  -5.394   6.510  0.00  0.00    +0.000 HD
ATOM     10  H   LEU G   1      11.248  -4.028   7.178  0.00  0.00    +0.000 HD
ATOM     11  H   LEU G   1      12.440  -4.852   7.999  0.00  0.00    +0.000 HD
TER 
REMARK  Name = /data/user_data/xianyang/t3-aimnet-affinity-balanced/L4/Q15726/pocket.pdb
REMARK                            x       y       z     vdW  Elec       q    Type
REMARK                         _______ _______ _______ _____ _____    ______ ____
ATOM      1  N   LEU H   1      11.219   0.021   7.912  0.00  0.00    +0.000 N 
ATOM      2  CA  LEU H   1      10.509   1.153   7.348  0.00  0.00    +0.000 C 
ATOM      3  C   LEU H   1       9.125   1.278   7.961  0.00  0.00    +0.000 C 
ATOM      4  O   LEU H   1       8.479   0.284   8.283  0.00  0.00    +0.000 OA
ATOM      5  CB  LEU H   1      10.375   1.014   5.828  0.00  0.00    +0.000 C 
ATOM      6  CG  LEU H   1      11.674   0.951   5.028  0.00  0.00    +0.000 C 
ATOM      7  CD1 LEU H   1      11.371   0.643   3.566  0.00  0.00    +0.000 C 
ATOM      8  CD2 LEU H   1      12.445   2.258   5.176  0.00  0.00    +0.000 C 
ATOM      9  N   LEU H   2       8.672   2.508   8.116  0.00  0.00    +0.000 N 
ATOM     10  CA  LEU H   2       7.319   2.747   8.580  0.00  0.00    +0.000 C 
ATOM     11  C   LEU H   2       6.337   2.447   7.456  0.00  0.00    +0.000 C 
ATOM     12  O   LEU H   2       6.642   2.621   6.279  0.00  0.00    +0.000 OA
ATOM     13  CB  LEU H   2       7.149   4.191   9.049  0.00  0.00    +0.000 C 
ATOM     14  CG  LEU H   2       7.976   4.605  10.266  0.00  0.00    +0.000 C 
ATOM     15  CD1 LEU H   2       7.724   6.065  10.602  0.00  0.00    +0.000 C 
ATOM     16  CD2 LEU H   2       7.648   3.712  11.459  0.00  0.00    +0.000 C 
ATOM     17  H   LEU H   1      12.144  -0.045   7.488  0.00  0.00    +0.000 HD
ATOM     18  H   LEU H   1      10.697  -0.835   7.725  0.00  0.00    +0.000 HD
ATOM     19  H   LEU H   1      11.315   0.148   8.920  0.00  0.00    +0.000 HD
ATOM     20  H   LEU H   2       9.259   3.272   7.914  0.00  0.00    +0.000 HD
TER 
REMARK  Name = /data/user_data/xianyang/t3-aimnet-affinity-balanced/L4/Q15726/pocket.pdb
REMARK                            x       y       z     vdW  Elec       q    Type
REMARK                         _______ _______ _______ _____ _____    ______ ____
ATOM      1  N   PRO I   1       3.268   2.732   4.873  0.00  0.00    +0.000 N 
ATOM      2  CA  PRO I   1       2.576   3.810   4.169  0.00  0.00    +0.000 C 
ATOM      3  C   PRO I   1       1.189   4.038   4.762  0.00  0.00    +0.000 C 
ATOM      4  O   PRO I   1       0.682   3.226   5.535  0.00  0.00    +0.000 OA
ATOM      5  CB  PRO I   1       2.484   3.291   2.729  0.00  0.00    +0.000 C 
ATOM      6  CG  PRO I   1       3.559   2.262   2.621  0.00  0.00    +0.000 C 
ATOM      7  CD  PRO I   1       3.648   1.630   3.983  0.00  0.00    +0.000 C 
ATOM      8  H   PRO I   1       4.112   3.111   5.302  0.00  0.00    +0.000 HD
ATOM      9  H   PRO I   1       2.626   2.357   5.572  0.00  0.00    +0.000 HD
TER 
REMARK  Name = /data/user_data/xianyang/t3-aimnet-affinity-balanced/L4/Q15726/pocket.pdb
REMARK                            x       y       z     vdW  Elec       q    Type
REMARK                         _______ _______ _______ _____ _____    ______ ____
ATOM      1  N   GLU J   1      -1.631   3.683   3.515  0.00  0.00    +0.000 N 
ATOM      2  CA  GLU J   1      -2.574   2.633   3.173  0.00  0.00    +0.000 C 
ATOM      3  C   GLU J   1      -2.573   1.511   4.200  0.00  0.00    +0.000 C 
ATOM      4  O   GLU J   1      -3.574   0.808   4.357  0.00  0.00    +0.000 OA
ATOM      5  CB  GLU J   1      -2.254   2.067   1.788  0.00  0.00    +0.000 C 
ATOM      6  CG  GLU J   1      -2.521   3.039   0.644  0.00  0.00    +0.000 C 
ATOM      7  CD  GLU J   1      -1.319   3.906   0.324  0.00  0.00    +0.000 C 
ATOM      8  OE2 GLU J   1      -0.397   3.994   1.156  0.00  0.00    +0.000 OA
ATOM      9  OE1 GLU J   1      -1.293   4.481  -0.784  0.00  0.00    +0.000 OA
ATOM     10  N   GLN J   2      -1.465   1.338   4.914  0.00  0.00    +0.000 N 
ATOM     11  CA  GLN J   2      -1.360   0.273   5.897  0.00  0.00    +0.000 C 
ATOM     12  C   GLN J   2      -2.108   0.588   7.189  0.00  0.00    +0.000 C 
ATOM     13  O   GLN J   2      -2.253  -0.288   8.042  0.00  0.00    +0.000 OA
ATOM     14  CB  GLN J   2       0.106  -0.010   6.210  0.00  0.00    +0.000 C 
ATOM     15  CG  GLN J   2       0.951  -0.365   4.996  0.00  0.00    +0.000 C 
ATOM     16  CD  GLN J   2       0.527  -1.664   4.346  0.00  0.00    +0.000 C 
ATOM     17  OE1 GLN J   2       0.020  -2.568   5.006  0.00  0.00    +0.000 OA
ATOM     18  NE2 GLN J   2       0.747  -1.766   3.038  0.00  0.00    +0.000 N 
ATOM     19  H   GLU J   1      -1.663   4.413   2.804  0.00  0.00    +0.000 HD
ATOM     20  H   GLU J   1      -0.690   3.293   3.560  0.00  0.00    +0.000 HD
ATOM     21  H   GLU J   1      -1.878   4.080   4.421  0.00  0.00    +0.000 HD
ATOM     22  H   GLN J   2      -0.701   1.943   4.774  0.00  0.00    +0.000 HD
ATOM     23  H   GLN J   2       1.156  -1.017   2.548  0.00  0.00    +0.000 HD
ATOM     24  H   GLN J   2       0.501  -2.591   2.560  0.00  0.00    +0.000 HD
TER 
REMARK  Name = /data/user_data/xianyang/t3-aimnet-affinity-balanced/L4/Q15726/pocket.pdb
REMARK                            x       y       z     vdW  Elec       q    Type
REMARK                         _______ _______ _______ _____ _____    ______ ____
ATOM      1  N   LEU K   1      -5.293   1.639   7.278  0.00  0.00    +0.000 N 
ATOM      2  CA  LEU K   1      -6.730   1.539   7.063  0.00  0.00    +0.000 C 
ATOM      3  C   LEU K   1      -7.407   0.562   8.020  0.00  0.00    +0.000 C 
ATOM      4  O   LEU K   1      -8.541   0.812   8.435  0.00  0.00    +0.000 OA
ATOM      5  CB  LEU K   1      -7.038   1.159   5.612  0.00  0.00    +0.000 C 
ATOM      6  CG  LEU K   1      -8.514   1.156   5.224  0.00  0.00    +0.000 C 
ATOM      7  CD2 LEU K   1      -9.143   2.524   5.471  0.00  0.00    +0.000 C 
ATOM      8  CD1 LEU K   1      -8.686   0.747   3.768  0.00  0.00    +0.000 C 
ATOM      9  H   LEU K   1      -4.895   2.303   6.614  0.00  0.00    +0.000 HD
ATOM     10  H   LEU K   1      -4.864   0.723   7.142  0.00  0.00    +0.000 HD
ATOM     11  H   LEU K   1      -5.113   1.961   8.229  0.00  0.00    +0.000 HD
TER 
REMARK  Name = /data/user_data/xianyang/t3-aimnet-affinity-balanced/L4/Q15726/pocket.pdb
REMARK                            x       y       z     vdW  Elec       q    Type
REMARK                         _______ _______ _______ _____ _____    ______ ____
ATOM      1  N   SER L   1      -3.879  11.598  -3.596  0.00  0.00    +0.000 N 
ATOM      2  CA  SER L   1      -3.190  12.125  -4.762  0.00  0.00    +0.000 C 
ATOM      3  C   SER L   1      -4.135  11.998  -5.949  0.00  0.00    +0.000 C 
ATOM      4  O   SER L   1      -4.506  10.892  -6.322  0.00  0.00    +0.000 OA
ATOM      5  CB  SER L   1      -1.902  11.349  -5.038  0.00  0.00    +0.000 C 
ATOM      6  OG  SER L   1      -0.972  11.516  -3.985  0.00  0.00    +0.000 OA
ATOM      7  H   SER L   1      -4.733  12.133  -3.435  0.00  0.00    +0.000 HD
ATOM      8  H   SER L   1      -3.272  11.673  -2.780  0.00  0.00    +0.000 HD
ATOM      9  H   SER L   1      -4.116  10.619  -3.755  0.00  0.00    +0.000 HD
ATOM     10  H   SER L   1      -0.745  12.455  -3.900  0.00  0.00    +0.000 HD
TER 
REMARK  Name = /data/user_data/xianyang/t3-aimnet-affinity-balanced/L4/Q15726/pocket.pdb
REMARK                            x       y       z     vdW  Elec       q    Type
REMARK                         _______ _______ _______ _____ _____    ______ ____
ATOM      1  N   GLU M   1      -2.018  13.554 -10.920  0.00  0.00    +0.000 N 
ATOM      2  CA  GLU M   1      -0.746  13.599 -10.221  0.00  0.00    +0.000 C 
ATOM      3  C   GLU M   1      -0.147  12.206 -10.066  0.00  0.00    +0.000 C 
ATOM      4  O   GLU M   1       1.046  12.006 -10.299  0.00  0.00    +0.000 OA
ATOM      5  CB  GLU M   1      -0.919  14.257  -8.852  0.00  0.00    +0.000 C 
ATOM      6  CG  GLU M   1       0.379  14.417  -8.074  0.00  0.00    +0.000 C 
ATOM      7  CD  GLU M   1       0.173  15.152  -6.762  0.00  0.00    +0.000 C 
ATOM      8  OE1 GLU M   1      -0.943  15.641  -6.516  0.00  0.00    +0.000 OA
ATOM      9  OE2 GLU M   1       1.131  15.243  -5.981  0.00  0.00    +0.000 OA
ATOM     10  N   SER M   2      -0.953  11.244  -9.671  0.00  0.00    +0.000 N 
ATOM     11  CA  SER M   2      -0.447   9.891  -9.480  0.00  0.00    +0.000 C 
ATOM     12  C   SER M   2      -0.120   9.215 -10.805  0.00  0.00    +0.000 C 
ATOM     13  O   SER M   2       0.795   8.394 -10.873  0.00  0.00    +0.000 OA
ATOM     14  CB  SER M   2      -1.462   9.047  -8.704  0.00  0.00    +0.000 C 
ATOM     15  OG  SER M   2      -2.697   8.974  -9.377  0.00  0.00    +0.000 OA
ATOM     16  H   GLU M   1      -1.890  13.113 -11.831  0.00  0.00    +0.000 HD
ATOM     17  H   GLU M   1      -2.370  14.503 -11.048  0.00  0.00    +0.000 HD
ATOM     18  H   GLU M   1      -2.688  13.014 -10.372  0.00  0.00    +0.000 HD
ATOM     19  H   SER M   2      -1.903  11.439  -9.504  0.00  0.00    +0.000 HD
ATOM     20  H   SER M   2      -3.067   9.866  -9.471  0.00  0.00    +0.000 HD
TER 
REMARK  Name = /data/user_data/xianyang/t3-aimnet-affinity-balanced/L4/Q15726/pocket.pdb
REMARK                            x       y       z     vdW  Elec       q    Type
REMARK                         _______ _______ _______ _____ _____    ______ ____
ATOM      1  N   SER N   1       3.432   9.998 -11.992  0.00  0.00    +0.000 N 
ATOM      2  CA  SER N   1       4.529   9.470 -11.200  0.00  0.00    +0.000 C 
ATOM      3  C   SER N   1       4.947   8.100 -11.722  0.00  0.00    +0.000 C 
ATOM      4  O   SER N   1       4.104   7.270 -12.045  0.00  0.00    +0.000 OA
ATOM      5  CB  SER N   1       4.125   9.355  -9.731  0.00  0.00    +0.000 C 
ATOM      6  OG  SER N   1       3.795  10.621  -9.195  0.00  0.00    +0.000 OA
ATOM      7  N   PRO N   2       6.259   7.854 -11.800  0.00  0.00    +0.000 N 
ATOM      8  CA  PRO N   2       6.721   6.546 -12.264  0.00  0.00    +0.000 C 
ATOM      9  C   PRO N   2       6.413   5.457 -11.245  0.00  0.00    +0.000 C 
ATOM     10  O   PRO N   2       6.429   5.688 -10.036  0.00  0.00    +0.000 OA
ATOM     11  CB  PRO N   2       8.229   6.740 -12.446  0.00  0.00    +0.000 C 
ATOM     12  CG  PRO N   2       8.571   7.861 -11.517  0.00  0.00    +0.000 C 
ATOM     13  CD  PRO N   2       7.371   8.769 -11.511  0.00  0.00    +0.000 C 
ATOM     14  N   GLN N   3       6.135   4.265 -11.759  0.00  0.00    +0.000 N 
ATOM     15  CA  GLN N   3       5.835   3.114 -10.921  0.00  0.00    +0.000 C 
ATOM     16  C   GLN N   3       7.111   2.315 -10.711  0.00  0.00    +0.000 C 
ATOM     17  O   GLN N   3       7.711   1.823 -11.669  0.00  0.00    +0.000 OA
ATOM     18  CB  GLN N   3       4.755   2.251 -11.579  0.00  0.00    +0.000 C 
ATOM     19  CG  GLN N   3       4.236   1.116 -10.714  0.00  0.00    +0.000 C 
ATOM     20  CD  GLN N   3       5.083  -0.136 -10.840  0.00  0.00    +0.000 C 
ATOM     21  OE1 GLN N   3       5.612  -0.434 -11.902  0.00  0.00    +0.000 OA
ATOM     22  NE2 GLN N   3       5.208  -0.877  -9.740  0.00  0.00    +0.000 N 
ATOM     23  N   GLN N   4       7.540   2.188  -9.446  0.00  0.00    +0.000 N 
ATOM     24  CA  GLN N   4       8.781   1.493  -9.135  0.00  0.00    +0.000 C 
ATOM     25  C   GLN N   4       8.637   0.669  -7.857  0.00  0.00    +0.000 C 
ATOM     26  O   GLN N   4       8.996   1.120  -6.770  0.00  0.00    +0.000 OA
ATOM     27  CB  GLN N   4       9.936   2.482  -8.979  0.00  0.00    +0.000 C 
ATOM     28  CG  GLN N   4      10.254   3.274 -10.233  0.00  0.00    +0.000 C 
ATOM     29  CD  GLN N   4      11.486   4.135 -10.061  0.00  0.00    +0.000 C 
ATOM     30  OE1 GLN N   4      12.090   4.180  -8.996  0.00  0.00    +0.000 OA
ATOM     31  NE2 GLN N   4      11.875   4.828 -11.121  0.00  0.00    +0.000 N 
ATOM     32  N   PRO N   5       8.110  -0.546  -7.980  0.00  0.00    +0.000 N 
ATOM     33  CA  PRO N   5       8.065  -1.430  -6.816  0.00  0.00    +0.000 C 
ATOM     34  C   PRO N   5       9.428  -2.073  -6.569  0.00  0.00    +0.000 C 
ATOM     35  O   PRO N   5      10.282  -2.122  -7.449  0.00  0.00    +0.000 OA
ATOM     36  CB  PRO N   5       7.018  -2.476  -7.217  0.00  0.00    +0.000 C 
ATOM     37  CG  PRO N   5       7.120  -2.532  -8.710  0.00  0.00    +0.000 C 
ATOM     38  CD  PRO N   5       7.447  -1.132  -9.156  0.00  0.00    +0.000 C 
ATOM     39  N   GLY N   6       9.633  -2.587  -5.343  0.00  0.00    +0.000 N 
ATOM     40  CA  GLY N   6      10.851  -3.301  -5.020  0.00  0.00    +0.000 C 
ATOM     41  C   GLY N   6      12.051  -2.434  -4.717  0.00  0.00    +0.000 C 
ATOM     42  O   GLY N   6      13.187  -2.901  -4.807  0.00  0.00    +0.000 OA
ATOM     43  N   LEU N   7      11.827  -1.185  -4.341  0.00  0.00    +0.000 N 
ATOM     44  CA  LEU N   7      12.934  -0.306  -4.009  0.00  0.00    +0.000 C 
ATOM     45  C   LEU N   7      13.581  -0.716  -2.692  0.00  0.00    +0.000 C 
ATOM     46  O   LEU N   7      12.914  -1.189  -1.773  0.00  0.00    +0.000 OA
ATOM     47  CB  LEU N   7      12.462   1.144  -3.918  0.00  0.00    +0.000 C 
ATOM     48  CG  LEU N   7      11.948   1.764  -5.216  0.00  0.00    +0.000 C 
ATOM     49  CD2 LEU N   7      11.482   3.191  -4.969  0.00  0.00    +0.000 C 
ATOM     50  CD1 LEU N   7      13.035   1.738  -6.283  0.00  0.00    +0.000 C 
ATOM     51  N   SER N   8      14.889  -0.516  -2.595  0.00  0.00    +0.000 N 
ATOM     52  CA  SER N   8      15.618  -0.820  -1.377  0.00  0.00    +0.000 C 
ATOM     53  C   SER N   8      15.305   0.218  -0.299  0.00  0.00    +0.000 C 
ATOM     54  O   SER N   8      14.754   1.283  -0.571  0.00  0.00    +0.000 OA
ATOM     55  CB  SER N   8      17.122  -0.869  -1.651  0.00  0.00    +0.000 C 
ATOM     56  OG  SER N   8      17.600   0.383  -2.090  0.00  0.00    +0.000 OA
ATOM     57  H   SER N   1       3.720  10.067 -12.968  0.00  0.00    +0.000 HD
ATOM     58  H   SER N   1       3.177  10.923 -11.646  0.00  0.00    +0.000 HD
ATOM     59  H   SER N   1       2.628   9.374 -11.918  0.00  0.00    +0.000 HD
ATOM     60  H   SER N   1       4.566  11.207  -9.250  0.00  0.00    +0.000 HD
ATOM     61  H   GLN N   3       6.132   4.156 -12.737  0.00  0.00    +0.000 HD
ATOM     62  H   GLN N   3       5.746  -1.701  -9.760  0.00  0.00    +0.000 HD
ATOM     63  H   GLN N   3       4.763  -0.600  -8.907  0.00  0.00    +0.000 HD
ATOM     64  H   GLN N   4       7.005   2.572  -8.714  0.00  0.00    +0.000 HD
ATOM     65  H   GLN N   4      11.366   4.769 -11.962  0.00  0.00    +0.000 HD
ATOM     66  H   GLN N   4      12.673   5.402 -11.068  0.00  0.00    +0.000 HD
ATOM     67  H   GLY N   6       8.941  -2.476  -4.651  0.00  0.00    +0.000 HD
ATOM     68  H   LEU N   7      10.903  -0.849  -4.286  0.00  0.00    +0.000 HD
ATOM     69  H   SER N   8      15.377  -0.152  -3.369  0.00  0.00    +0.000 HD
ATOM     70  H   SER N   8      17.442   1.049  -1.402  0.00  0.00    +0.000 HD
TER 
REMARK  Name = /data/user_data/xianyang/t3-aimnet-affinity-balanced/L4/Q15726/pocket.pdb
REMARK                            x       y       z     vdW  Elec       q    Type
REMARK                         _______ _______ _______ _____ _____    ______ ____
ATOM      1  N   HIS O   1      16.356   4.019  -0.677  0.00  0.00    +0.000 N 
ATOM      2  CA  HIS O   1      15.546   4.733  -1.650  0.00  0.00    +0.000 C 
ATOM      3  C   HIS O   1      14.096   4.838  -1.201  0.00  0.00    +0.000 C 
ATOM      4  O   HIS O   1      13.436   5.852  -1.444  0.00  0.00    +0.000 OA
ATOM      5  CB  HIS O   1      15.622   4.045  -3.016  0.00  0.00    +0.000 C 
ATOM      6  CG  HIS O   1      16.997   4.042  -3.613  0.00  0.00    +0.000 A 
ATOM      7  ND1 HIS O   1      17.774   5.177  -3.696  0.00  0.00    +0.000 N 
ATOM      8  CD2 HIS O   1      17.721   3.036  -4.162  0.00  0.00    +0.000 A 
ATOM      9  CE1 HIS O   1      18.919   4.858  -4.273  0.00  0.00    +0.000 A 
ATOM     10  NE2 HIS O   1      18.918   3.570  -4.567  0.00  0.00    +0.000 NA
ATOM     11  N   SER O   2      13.587   3.805  -0.549  0.00  0.00    +0.000 N 
ATOM     12  CA  SER O   2      12.196   3.800  -0.112  0.00  0.00    +0.000 C 
ATOM     13  C   SER O   2      11.917   4.900   0.900  0.00  0.00    +0.000 C 
ATOM     14  O   SER O   2      10.816   5.452   0.936  0.00  0.00    +0.000 OA
ATOM     15  CB  SER O   2      11.826   2.442   0.484  0.00  0.00    +0.000 C 
ATOM     16  OG  SER O   2      11.935   1.420  -0.488  0.00  0.00    +0.000 OA
ATOM     17  N   ARG O   3      12.887   5.225   1.721  0.00  0.00    +0.000 N 
ATOM     18  CA  ARG O   3      12.702   6.251   2.739  0.00  0.00    +0.000 C 
ATOM     19  C   ARG O   3      12.599   7.653   2.148  0.00  0.00    +0.000 C 
ATOM     20  O   ARG O   3      12.215   8.589   2.850  0.00  0.00    +0.000 OA
ATOM     21  CB  ARG O   3      13.842   6.189   3.759  0.00  0.00    +0.000 C 
ATOM     22  CG  ARG O   3      13.821   4.926   4.605  0.00  0.00    +0.000 C 
ATOM     23  CD  ARG O   3      14.910   4.929   5.660  0.00  0.00    +0.000 C 
ATOM     24  NE  ARG O   3      14.843   3.755   6.521  0.00  0.00    +0.000 N 
ATOM     25  CZ  ARG O   3      15.609   3.550   7.585  0.00  0.00    +0.000 C 
ATOM     26  NH1 ARG O   3      16.520   4.447   7.938  0.00  0.00    +0.000 N 
ATOM     27  NH2 ARG O   3      15.464   2.447   8.301  0.00  0.00    +0.000 N 
ATOM     28  N   GLN O   4      12.946   7.812   0.883  0.00  0.00    +0.000 N 
ATOM     29  CA  GLN O   4      12.814   9.094   0.206  0.00  0.00    +0.000 C 
ATOM     30  C   GLN O   4      11.435   9.281  -0.408  0.00  0.00    +0.000 C 
ATOM     31  O   GLN O   4      11.120  10.378  -0.885  0.00  0.00    +0.000 OA
ATOM     32  CB  GLN O   4      13.870   9.228  -0.896  0.00  0.00    +0.000 C 
ATOM     33  CG  GLN O   4      15.301   9.188  -0.416  0.00  0.00    +0.000 C 
ATOM     34  CD  GLN O   4      16.275   9.266  -1.565  0.00  0.00    +0.000 C 
ATOM     35  OE1 GLN O   4      16.693   8.251  -2.115  0.00  0.00    +0.000 OA
ATOM     36  NE2 GLN O   4      16.629  10.488  -1.955  0.00  0.00    +0.000 N 
ATOM     37  N   ILE O   5      10.610   8.242  -0.409  0.00  0.00    +0.000 N 
ATOM     38  CA  ILE O   5       9.313   8.259  -1.059  0.00  0.00    +0.000 C 
ATOM     39  C   ILE O   5       8.218   8.505  -0.028  0.00  0.00    +0.000 C 
ATOM     40  O   ILE O   5       8.130   7.786   0.966  0.00  0.00    +0.000 OA
ATOM     41  CB  ILE O   5       9.063   6.936  -1.801  0.00  0.00    +0.000 C 
ATOM     42  CG1 ILE O   5      10.178   6.689  -2.827  0.00  0.00    +0.000 C 
ATOM     43  CG2 ILE O   5       7.703   6.955  -2.478  0.00  0.00    +0.000 C 
ATOM     44  CD1 ILE O   5      10.147   5.296  -3.430  0.00  0.00    +0.000 C 
ATOM     45  N   PRO O   6       7.388   9.516  -0.240  0.00  0.00    +0.000 N 
ATOM     46  CA  PRO O   6       6.266   9.744   0.670  0.00  0.00    +0.000 C 
ATOM     47  C   PRO O   6       5.204   8.662   0.515  0.00  0.00    +0.000 C 
ATOM     48  O   PRO O   6       5.270   7.834  -0.392  0.00  0.00    +0.000 OA
ATOM     49  CB  PRO O   6       5.738  11.121   0.242  0.00  0.00    +0.000 C 
ATOM     50  CG  PRO O   6       6.120  11.219  -1.199  0.00  0.00    +0.000 C 
ATOM     51  CD  PRO O   6       7.449  10.518  -1.313  0.00  0.00    +0.000 C 
ATOM     52  N   ALA O   7       4.221   8.677   1.406  0.00  0.00    +0.000 N 
ATOM     53  CA  ALA O   7       3.141   7.707   1.354  0.00  0.00    +0.000 C 
ATOM     54  C   ALA O   7       2.496   7.735  -0.029  0.00  0.00    +0.000 C 
ATOM     55  O   ALA O   7       2.158   8.804  -0.534  0.00  0.00    +0.000 OA
ATOM     56  CB  ALA O   7       2.105   8.001   2.433  0.00  0.00    +0.000 C 
ATOM     57  N   PRO O   8       2.333   6.555  -0.635  0.00  0.00    +0.000 N 
ATOM     58  CA  PRO O   8       1.878   6.500  -2.027  0.00  0.00    +0.000 C 
ATOM     59  C   PRO O   8       0.364   6.607  -2.188  0.00  0.00    +0.000 C 
ATOM     60  O   PRO O   8      -0.275   5.701  -2.728  0.00  0.00    +0.000 OA
ATOM     61  CB  PRO O   8       2.393   5.139  -2.489  0.00  0.00    +0.000 C 
ATOM     62  CG  PRO O   8       2.346   4.298  -1.257  0.00  0.00    +0.000 C 
ATOM     63  CD  PRO O   8       2.699   5.230  -0.117  0.00  0.00    +0.000 C 
ATOM     64  N   GLN O   9      -0.217   7.725  -1.758  0.00  0.00    +0.000 N 
ATOM     65  CA  GLN O   9      -1.628   7.965  -1.980  0.00  0.00    +0.000 C 
ATOM     66  C   GLN O   9      -1.887   8.079  -3.483  0.00  0.00    +0.000 C 
ATOM     67  O   GLN O   9      -1.312   8.923  -4.167  0.00  0.00    +0.000 OA
ATOM     68  CB  GLN O   9      -2.081   9.248  -1.278  0.00  0.00    +0.000 C 
ATOM     69  CG  GLN O   9      -2.637   9.028   0.119  0.00  0.00    +0.000 C 
ATOM     70  CD  GLN O   9      -1.592   8.520   1.086  0.00  0.00    +0.000 C 
ATOM     71  OE1 GLN O   9      -0.419   8.857   0.989  0.00  0.00    +0.000 OA
ATOM     72  NE2 GLN O   9      -2.017   7.714   2.063  0.00  0.00    +0.000 N 
ATOM     73  N   GLY O  10      -2.746   7.189  -3.996  0.00  0.00    +0.000 N 
ATOM     74  CA  GLY O  10      -3.070   7.188  -5.408  0.00  0.00    +0.000 C 
ATOM     75  C   GLY O  10      -2.085   6.451  -6.284  0.00  0.00    +0.000 C 
ATOM     76  O   GLY O  10      -2.304   6.335  -7.490  0.00  0.00    +0.000 OA
ATOM     77  N   ALA O  11      -1.007   5.950  -5.707  0.00  0.00    +0.000 N 
ATOM     78  CA  ALA O  11       0.012   5.271  -6.497  0.00  0.00    +0.000 C 
ATOM     79  C   ALA O  11      -0.514   4.000  -7.149  0.00  0.00    +0.000 C 
ATOM     80  O   ALA O  11      -0.016   3.586  -8.197  0.00  0.00    +0.000 OA
ATOM     81  CB  ALA O  11       1.225   4.946  -5.626  0.00  0.00    +0.000 C 
ATOM     82  N   VAL O  12      -1.518   3.378  -6.556  0.00  0.00    +0.000 N 
ATOM     83  CA  VAL O  12      -2.074   2.153  -7.106  0.00  0.00    +0.000 C 
ATOM     84  C   VAL O  12      -2.701   2.388  -8.473  0.00  0.00    +0.000 C 
ATOM     85  O   VAL O  12      -2.827   1.458  -9.271  0.00  0.00    +0.000 OA
ATOM     86  CB  VAL O  12      -3.111   1.545  -6.134  0.00  0.00    +0.000 C 
ATOM     87  CG2 VAL O  12      -4.312   2.466  -5.994  0.00  0.00    +0.000 C 
ATOM     88  CG1 VAL O  12      -3.533   0.155  -6.587  0.00  0.00    +0.000 C 
ATOM     89  H   HIS O   1      17.319   3.967  -1.009  0.00  0.00    +0.000 HD
ATOM     90  H   HIS O   1      15.987   3.076  -0.554  0.00  0.00    +0.000 HD
ATOM     91  H   HIS O   1      16.330   4.513   0.215  0.00  0.00    +0.000 HD
ATOM     92  H   HIS O   1      17.519   6.074  -3.379  0.00  0.00    +0.000 HD
ATOM     93  H   SER O   2      14.158   3.026  -0.356  0.00  0.00    +0.000 HD
ATOM     94  H   SER O   2      12.850   1.373  -0.807  0.00  0.00    +0.000 HD
ATOM     95  H   ARG O   3      13.756   4.767   1.648  0.00  0.00    +0.000 HD
ATOM     96  H   ARG O   3      14.180   3.063   6.297  0.00  0.00    +0.000 HD
ATOM     97  H   ARG O   3      16.632   5.269   7.409  0.00  0.00    +0.000 HD
ATOM     98  H   ARG O   3      17.084   4.290   8.729  0.00  0.00    +0.000 HD
ATOM     99  H   ARG O   3      14.789   1.778   8.043  0.00  0.00    +0.000 HD
ATOM    100  H   ARG O   3      16.031   2.295   9.092  0.00  0.00    +0.000 HD
ATOM    101  H   GLN O   4      13.304   7.042   0.384  0.00  0.00    +0.000 HD
ATOM    102  H   GLN O   4      17.262  10.603  -2.700  0.00  0.00    +0.000 HD
ATOM    103  H   GLN O   4      16.258  11.277  -1.498  0.00  0.00    +0.000 HD
ATOM    104  H   ILE O   5      10.891   7.420   0.054  0.00  0.00    +0.000 HD
ATOM    105  H   ALA O   7       4.224   9.359   2.116  0.00  0.00    +0.000 HD
ATOM    106  H   GLN O   9       0.320   8.399  -1.282  0.00  0.00    +0.000 HD
ATOM    107  H   GLN O   9      -2.967   7.461   2.114  0.00  0.00    +0.000 HD
ATOM    108  H   GLN O   9      -1.380   7.373   2.732  0.00  0.00    +0.000 HD
ATOM    109  H   GLY O  10      -3.165   6.524  -3.403  0.00  0.00    +0.000 HD
ATOM    110  H   ALA O  11      -0.891   6.036  -4.733  0.00  0.00    +0.000 HD
ATOM    111  H   VAL O  12      -1.896   3.751  -5.727  0.00  0.00    +0.000 HD
TER 
REMARK  Name = /data/user_data/xianyang/t3-aimnet-affinity-balanced/L4/Q15726/pocket.pdb
REMARK                            x       y       z     vdW  Elec       q    Type
REMARK                         _______ _______ _______ _____ _____    ______ ____
ATOM      1  N   VAL P   1      -1.482   3.827 -11.005  0.00  0.00    +0.000 N 
ATOM      2  CA  VAL P   1      -0.528   3.704 -12.098  0.00  0.00    +0.000 C 
ATOM      3  C   VAL P   1      -0.036   2.272 -12.255  0.00  0.00    +0.000 C 
ATOM      4  O   VAL P   1       0.798   1.990 -13.119  0.00  0.00    +0.000 OA
ATOM      5  CB  VAL P   1       0.675   4.652 -11.912  0.00  0.00    +0.000 C 
ATOM      6  CG1 VAL P   1       0.200   6.095 -11.815  0.00  0.00    +0.000 C 
ATOM      7  CG2 VAL P   1       1.486   4.275 -10.678  0.00  0.00    +0.000 C 
ATOM      8  N   GLN P   2      -0.532   1.348 -11.429  0.00  0.00    +0.000 N 
ATOM      9  CA  GLN P   2      -0.089  -0.030 -11.477  0.00  0.00    +0.000 C 
ATOM     10  C   GLN P   2      -0.741  -0.778 -12.632  0.00  0.00    +0.000 C 
ATOM     11  O   GLN P   2      -1.916  -0.590 -12.932  0.00  0.00    +0.000 OA
ATOM     12  CB  GLN P   2      -0.412  -0.744 -10.167  0.00  0.00    +0.000 C 
ATOM     13  CG  GLN P   2       0.214  -0.114  -8.940  0.00  0.00    +0.000 C 
ATOM     14  CD  GLN P   2       1.721  -0.166  -8.971  0.00  0.00    +0.000 C 
ATOM     15  OE1 GLN P   2       2.308  -1.211  -9.260  0.00  0.00    +0.000 OA
ATOM     16  NE2 GLN P   2       2.363   0.956  -8.671  0.00  0.00    +0.000 N 
ATOM     17  H   VAL P   1      -2.262   3.188 -11.161  0.00  0.00    +0.000 HD
ATOM     18  H   VAL P   1      -1.830   4.785 -10.964  0.00  0.00    +0.000 HD
ATOM     19  H   VAL P   1      -1.022   3.594 -10.125  0.00  0.00    +0.000 HD
ATOM     20  H   GLN P   2      -1.216   1.610 -10.771  0.00  0.00    +0.000 HD
ATOM     21  H   GLN P   2       3.347   0.976  -8.676  0.00  0.00    +0.000 HD
ATOM     22  H   GLN P   2       1.855   1.768  -8.443  0.00  0.00    +0.000 HD
TER 
REMARK  Name = /data/user_data/xianyang/t3-aimnet-affinity-balanced/L4/Q15726/pocket.pdb
REMARK                            x       y       z     vdW  Elec       q    Type
REMARK                         _______ _______ _______ _____ _____    ______ ____
ATOM      1  N   PRO Q   1      -0.377  -7.661  -7.481  0.00  0.00    +0.000 N 
ATOM      2  CA  PRO Q   1      -0.051  -8.519  -6.339  0.00  0.00    +0.000 C 
ATOM      3  C   PRO Q   1       0.938  -7.899  -5.362  0.00  0.00    +0.000 C 
ATOM      4  O   PRO Q   1       1.086  -8.404  -4.244  0.00  0.00    +0.000 OA
ATOM      5  CB  PRO Q   1       0.542  -9.772  -6.994  0.00  0.00    +0.000 C 
ATOM      6  CG  PRO Q   1      -0.074  -9.796  -8.350  0.00  0.00    +0.000 C 
ATOM      7  CD  PRO Q   1      -0.157  -8.354  -8.757  0.00  0.00    +0.000 C 
ATOM      8  N   ASN Q   2       1.614  -6.824  -5.751  0.00  0.00    +0.000 N 
ATOM      9  CA  ASN Q   2       2.532  -6.141  -4.848  0.00  0.00    +0.000 C 
ATOM     10  C   ASN Q   2       1.807  -5.318  -3.792  0.00  0.00    +0.000 C 
ATOM     11  O   ASN Q   2       2.434  -4.860  -2.829  0.00  0.00    +0.000 OA
ATOM     12  CB  ASN Q   2       3.473  -5.222  -5.636  0.00  0.00    +0.000 C 
ATOM     13  CG  ASN Q   2       4.382  -5.981  -6.575  0.00  0.00    +0.000 C 
ATOM     14  OD1 ASN Q   2       4.734  -7.130  -6.321  0.00  0.00    +0.000 OA
ATOM     15  ND2 ASN Q   2       4.767  -5.341  -7.671  0.00  0.00    +0.000 N 
ATOM     16  N   TYR Q   3       0.507  -5.117  -3.949  0.00  0.00    +0.000 N 
ATOM     17  CA  TYR Q   3      -0.271  -4.292  -3.042  0.00  0.00    +0.000 C 
ATOM     18  C   TYR Q   3      -1.111  -5.151  -2.106  0.00  0.00    +0.000 C 
ATOM     19  O   TYR Q   3      -1.546  -6.245  -2.456  0.00  0.00    +0.000 OA
ATOM     20  CB  TYR Q   3      -1.162  -3.331  -3.835  0.00  0.00    +0.000 C 
ATOM     21  CG  TYR Q   3      -0.374  -2.235  -4.502  0.00  0.00    +0.000 A 
ATOM     22  CD1 TYR Q   3       0.273  -2.459  -5.712  0.00  0.00    +0.000 A 
ATOM     23  CD2 TYR Q   3      -0.240  -0.992  -3.897  0.00  0.00    +0.000 A 
ATOM     24  CE1 TYR Q   3       1.031  -1.461  -6.314  0.00  0.00    +0.000 A 
ATOM     25  CE2 TYR Q   3       0.513   0.014  -4.501  0.00  0.00    +0.000 A 
ATOM     26  CZ  TYR Q   3       1.148  -0.225  -5.703  0.00  0.00    +0.000 A 
ATOM     27  OH  TYR Q   3       1.892   0.759  -6.292  0.00  0.00    +0.000 OA
ATOM     28  N   ASN Q   4      -1.339  -4.625  -0.921  0.00  0.00    +0.000 N 
ATOM     29  CA  ASN Q   4      -2.084  -5.340   0.103  0.00  0.00    +0.000 C 
ATOM     30  C   ASN Q   4      -3.579  -5.125  -0.098  0.00  0.00    +0.000 C 
ATOM     31  O   ASN Q   4      -4.153  -4.140   0.375  0.00  0.00    +0.000 OA
ATOM     32  CB  ASN Q   4      -1.648  -4.862   1.487  0.00  0.00    +0.000 C 
ATOM     33  CG  ASN Q   4      -2.387  -5.568   2.600  0.00  0.00    +0.000 C 
ATOM     34  OD1 ASN Q   4      -3.051  -6.585   2.389  0.00  0.00    +0.000 OA
ATOM     35  ND2 ASN Q   4      -2.283  -5.035   3.808  0.00  0.00    +0.000 N 
ATOM     36  N   TRP Q   5      -4.223  -6.050  -0.776  0.00  0.00    +0.000 N 
ATOM     37  CA  TRP Q   5      -5.640  -5.930  -1.074  0.00  0.00    +0.000 C 
ATOM     38  C   TRP Q   5      -6.526  -6.251   0.123  0.00  0.00    +0.000 C 
ATOM     39  O   TRP Q   5      -7.743  -6.070   0.050  0.00  0.00    +0.000 OA
ATOM     40  CB  TRP Q   5      -6.005  -6.818  -2.264  0.00  0.00    +0.000 C 
ATOM     41  CG  TRP Q   5      -5.260  -6.444  -3.507  0.00  0.00    +0.000 C 
ATOM     42  CD1 TRP Q   5      -4.323  -7.191  -4.156  0.00  0.00    +0.000 C 
ATOM     43  CD2 TRP Q   5      -5.371  -5.218  -4.237  0.00  0.00    +0.000 A 
ATOM     44  NE1 TRP Q   5      -3.846  -6.509  -5.251  0.00  0.00    +0.000 NA
ATOM     45  CE2 TRP Q   5      -4.471  -5.297  -5.327  0.00  0.00    +0.000 A 
ATOM     46  CE3 TRP Q   5      -6.149  -4.062  -4.077  0.00  0.00    +0.000 A 
ATOM     47  CZ2 TRP Q   5      -4.330  -4.255  -6.242  0.00  0.00    +0.000 A 
ATOM     48  CZ3 TRP Q   5      -6.006  -3.031  -4.995  0.00  0.00    +0.000 A 
ATOM     49  CH2 TRP Q   5      -5.110  -3.131  -6.061  0.00  0.00    +0.000 A 
ATOM     50  H   PRO Q   1      -1.357  -7.385  -7.419  0.00  0.00    +0.000 HD
ATOM     51  H   PRO Q   1       0.234  -6.844  -7.452  0.00  0.00    +0.000 HD
ATOM     52  H   ASN Q   2       1.493  -6.482  -6.666  0.00  0.00    +0.000 HD
ATOM     53  H   ASN Q   2       5.360  -5.787  -8.319  0.00  0.00    +0.000 HD
ATOM     54  H   ASN Q   2       4.460  -4.420  -7.837  0.00  0.00    +0.000 HD
ATOM     55  H   TYR Q   3       0.051  -5.543  -4.710  0.00  0.00    +0.000 HD
ATOM     56  H   TYR Q   3       2.323   0.596  -7.108  0.00  0.00    +0.000 HD
ATOM     57  H   ASN Q   4      -0.996  -3.724  -0.723  0.00  0.00    +0.000 HD
ATOM     58  H   ASN Q   4      -1.745  -4.222   3.943  0.00  0.00    +0.000 HD
ATOM     59  H   ASN Q   4      -2.744  -5.452   4.571  0.00  0.00    +0.000 HD
ATOM     60  H   TRP Q   5      -3.732  -6.844  -1.090  0.00  0.00    +0.000 HD
TER 
REMARK  Name = /data/user_data/xianyang/t3-aimnet-affinity-balanced/L4/Q15726/pocket.pdb
REMARK                            x       y       z     vdW  Elec       q    Type
REMARK                         _______ _______ _______ _____ _____    ______ ____
ATOM      1  N   SER R   1      -6.687  -4.506   2.676  0.00  0.00    +0.000 N 
ATOM      2  CA  SER R   1      -7.235  -3.217   3.085  0.00  0.00    +0.000 C 
ATOM      3  C   SER R   1      -8.534  -2.912   2.354  0.00  0.00    +0.000 C 
ATOM      4  O   SER R   1      -9.474  -2.363   2.938  0.00  0.00    +0.000 OA
ATOM      5  CB  SER R   1      -6.209  -2.108   2.845  0.00  0.00    +0.000 C 
ATOM      6  OG  SER R   1      -5.041  -2.335   3.613  0.00  0.00    +0.000 OA
ATOM      7  N   PHE R   2      -8.602  -3.264   1.077  0.00  0.00    +0.000 N 
ATOM      8  CA  PHE R   2      -9.849  -3.109   0.336  0.00  0.00    +0.000 C 
ATOM      9  C   PHE R   2     -10.921  -4.033   0.889  0.00  0.00    +0.000 C 
ATOM     10  O   PHE R   2     -12.105  -3.689   0.903  0.00  0.00    +0.000 OA
ATOM     11  CB  PHE R   2      -9.637  -3.404  -1.152  0.00  0.00    +0.000 C 
ATOM     12  CG  PHE R   2      -8.780  -2.403  -1.865  0.00  0.00    +0.000 A 
ATOM     13  CD1 PHE R   2      -7.477  -2.714  -2.216  0.00  0.00    +0.000 A 
ATOM     14  CD2 PHE R   2      -9.280  -1.156  -2.192  0.00  0.00    +0.000 A 
ATOM     15  CE1 PHE R   2      -6.688  -1.794  -2.881  0.00  0.00    +0.000 A 
ATOM     16  CE2 PHE R   2      -8.493  -0.231  -2.857  0.00  0.00    +0.000 A 
ATOM     17  CZ  PHE R   2      -7.195  -0.546  -3.203  0.00  0.00    +0.000 A 
ATOM     18  H   SER R   1      -7.379  -5.237   2.840  0.00  0.00    +0.000 HD
ATOM     19  H   SER R   1      -5.846  -4.705   3.218  0.00  0.00    +0.000 HD
ATOM     20  H   SER R   1      -6.453  -4.476   1.684  0.00  0.00    +0.000 HD
ATOM     21  H   SER R   1      -5.270  -2.343   4.555  0.00  0.00    +0.000 HD
ATOM     22  H   PHE R   2      -7.807  -3.632   0.627  0.00  0.00    +0.000 HD
TER 
REMARK  Name = /data/user_data/xianyang/t3-aimnet-affinity-balanced/L4/Q15726/pocket.pdb
REMARK                            x       y       z     vdW  Elec       q    Type
REMARK                         _______ _______ _______ _____ _____    ______ ____
ATOM      1  N   ARG S   1       4.187   6.132   7.554  0.00  0.00    +0.000 N 
ATOM      2  CA  ARG S   1       5.388   6.728   6.981  0.00  0.00    +0.000 C 
ATOM      3  C   ARG S   1       5.274   8.245   6.893  0.00  0.00    +0.000 C 
ATOM      4  O   ARG S   1       6.267   8.951   7.071  0.00  0.00    +0.000 OA
ATOM      5  CB  ARG S   1       5.637   6.133   5.592  0.00  0.00    +0.000 C 
ATOM      6  CG  ARG S   1       6.886   6.638   4.912  0.00  0.00    +0.000 C 
ATOM      7  CD  ARG S   1       7.117   5.920   3.598  0.00  0.00    +0.000 C 
ATOM      8  NE  ARG S   1       8.297   6.430   2.910  0.00  0.00    +0.000 N 
ATOM      9  CZ  ARG S   1       9.535   6.085   3.184  0.00  0.00    +0.000 C 
ATOM     10  NH2 ARG S   1       9.790   5.210   4.148  0.00  0.00    +0.000 N 
ATOM     11  NH1 ARG S   1      10.537   6.616   2.492  0.00  0.00    +0.000 N 
ATOM     12  H   ARG S   1       4.298   5.119   7.598  0.00  0.00    +0.000 HD
ATOM     13  H   ARG S   1       3.382   6.361   6.971  0.00  0.00    +0.000 HD
ATOM     14  H   ARG S   1       4.041   6.499   8.494  0.00  0.00    +0.000 HD
ATOM     15  H   ARG S   1       8.156   7.082   2.186  0.00  0.00    +0.000 HD
ATOM     16  H   ARG S   1      10.720   4.956   4.349  0.00  0.00    +0.000 HD
ATOM     17  H   ARG S   1       9.050   4.815   4.663  0.00  0.00    +0.000 HD
ATOM     18  H   ARG S   1      10.351   7.266   1.776  0.00  0.00    +0.000 HD
ATOM     19  H   ARG S   1      11.466   6.360   2.695  0.00  0.00    +0.000 HD
TER 
