REMARK  Name = /data/user_data/xianyang/t3-aimnet-affinity-balanced/L4/P43341/pocket.pdb
REMARK                            x       y       z     vdW  Elec       q    Type
REMARK                         _______ _______ _______ _____ _____    ______ ____
ATOM      1  N   GLU A   1       5.052  -2.652   8.009  0.00  0.00    +0.000 N 
ATOM      2  CA  GLU A   1       6.296  -1.912   7.832  0.00  0.00    +0.000 C 
ATOM      3  C   GLU A   1       7.333  -2.725   7.062  0.00  0.00    +0.000 C 
ATOM      4  O   GLU A   1       8.179  -2.155   6.368  0.00  0.00    +0.000 OA
ATOM      5  CB  GLU A   1       6.840  -1.493   9.196  0.00  0.00    +0.000 C 
ATOM      6  CG  GLU A   1       8.130  -0.691   9.161  0.00  0.00    +0.000 C 
ATOM      7  CD  GLU A   1       7.971   0.700   8.568  0.00  0.00    +0.000 C 
ATOM      8  OE1 GLU A   1       6.821   1.115   8.287  0.00  0.00    +0.000 OA
ATOM      9  OE2 GLU A   1       9.001   1.384   8.385  0.00  0.00    +0.000 OA
ATOM     10  N   ALA A   2       7.273  -4.032   7.181  0.00  0.00    +0.000 N 
ATOM     11  CA  ALA A   2       8.186  -4.921   6.480  0.00  0.00    +0.000 C 
ATOM     12  C   ALA A   2       7.531  -6.280   6.339  0.00  0.00    +0.000 C 
ATOM     13  O   ALA A   2       6.622  -6.628   7.096  0.00  0.00    +0.000 OA
ATOM     14  CB  ALA A   2       9.520  -5.037   7.215  0.00  0.00    +0.000 C 
ATOM     15  N   TRP A   3       8.019  -7.046   5.372  0.00  0.00    +0.000 N 
ATOM     16  CA  TRP A   3       7.546  -8.411   5.162  0.00  0.00    +0.000 C 
ATOM     17  C   TRP A   3       8.666  -9.227   4.546  0.00  0.00    +0.000 C 
ATOM     18  O   TRP A   3       9.190  -8.875   3.489  0.00  0.00    +0.000 OA
ATOM     19  CB  TRP A   3       6.310  -8.432   4.261  0.00  0.00    +0.000 C 
ATOM     20  CG  TRP A   3       5.531  -9.708   4.358  0.00  0.00    +0.000 C 
ATOM     21  CD1 TRP A   3       5.673 -10.823   3.592  0.00  0.00    +0.000 C 
ATOM     22  CD2 TRP A   3       4.497 -10.005   5.305  0.00  0.00    +0.000 C 
ATOM     23  NE1 TRP A   3       4.791 -11.799   3.998  0.00  0.00    +0.000 NA
ATOM     24  CE2 TRP A   3       4.055 -11.324   5.042  0.00  0.00    +0.000 C 
ATOM     25  CE3 TRP A   3       3.900  -9.277   6.346  0.00  0.00    +0.000 C 
ATOM     26  CZ2 TRP A   3       3.037 -11.925   5.783  0.00  0.00    +0.000 C 
ATOM     27  CZ3 TRP A   3       2.890  -9.880   7.077  0.00  0.00    +0.000 C 
ATOM     28  CH2 TRP A   3       2.472 -11.197   6.792  0.00  0.00    +0.000 C 
ATOM     29  N   ILE A   4       9.014 -10.330   5.204  0.00  0.00    +0.000 N 
ATOM     30  CA  ILE A   4      10.115 -11.171   4.750  0.00  0.00    +0.000 C 
ATOM     31  C   ILE A   4       9.655 -12.573   4.374  0.00  0.00    +0.000 C 
ATOM     32  O   ILE A   4      10.477 -13.464   4.182  0.00  0.00    +0.000 OA
ATOM     33  CB  ILE A   4      11.232 -11.250   5.807  0.00  0.00    +0.000 C 
ATOM     34  CG1 ILE A   4      10.685 -11.836   7.106  0.00  0.00    +0.000 C 
ATOM     35  CG2 ILE A   4      11.831  -9.860   6.038  0.00  0.00    +0.000 C 
ATOM     36  CD1 ILE A   4      11.755 -12.182   8.119  0.00  0.00    +0.000 C 
ATOM     37  H   GLU A   1       4.690  -2.931   7.097  0.00  0.00    +0.000 HD
ATOM     38  H   GLU A   1       4.368  -2.060   8.480  0.00  0.00    +0.000 HD
ATOM     39  H   GLU A   1       5.228  -3.483   8.574  0.00  0.00    +0.000 HD
ATOM     40  H   ALA A   2       6.585  -4.424   7.766  0.00  0.00    +0.000 HD
ATOM     41  H   TRP A   3       8.718  -6.685   4.781  0.00  0.00    +0.000 HD
ATOM     42  H   ILE A   4       8.517 -10.584   6.015  0.00  0.00    +0.000 HD
TER 
REMARK  Name = /data/user_data/xianyang/t3-aimnet-affinity-balanced/L4/P43341/pocket.pdb
REMARK                            x       y       z     vdW  Elec       q    Type
REMARK                         _______ _______ _______ _____ _____    ______ ____
ATOM      1  N   ASN B   1       5.178  -1.164  -1.433  0.00  0.00    +0.000 N 
ATOM      2  CA  ASN B   1       6.623  -1.325  -1.550  0.00  0.00    +0.000 C 
ATOM      3  C   ASN B   1       7.234  -1.969  -0.316  0.00  0.00    +0.000 C 
ATOM      4  O   ASN B   1       8.344  -2.503  -0.394  0.00  0.00    +0.000 OA
ATOM      5  CB  ASN B   1       7.294   0.024  -1.834  0.00  0.00    +0.000 C 
ATOM      6  CG  ASN B   1       7.087   1.036  -0.731  0.00  0.00    +0.000 C 
ATOM      7  OD1 ASN B   1       5.956   1.351  -0.369  0.00  0.00    +0.000 OA
ATOM      8  ND2 ASN B   1       8.183   1.554  -0.194  0.00  0.00    +0.000 N 
ATOM      9  N   ARG B   2       6.565  -1.913   0.826  0.00  0.00    +0.000 N 
ATOM     10  CA  ARG B   2       7.087  -2.516   2.055  0.00  0.00    +0.000 C 
ATOM     11  C   ARG B   2       6.752  -4.004   2.147  0.00  0.00    +0.000 C 
ATOM     12  O   ARG B   2       7.576  -4.793   2.615  0.00  0.00    +0.000 OA
ATOM     13  CB  ARG B   2       6.531  -1.813   3.293  0.00  0.00    +0.000 C 
ATOM     14  CG  ARG B   2       6.655  -0.300   3.271  0.00  0.00    +0.000 C 
ATOM     15  CD  ARG B   2       8.101   0.138   3.306  0.00  0.00    +0.000 C 
ATOM     16  NE  ARG B   2       8.739  -0.182   4.573  0.00  0.00    +0.000 N 
ATOM     17  CZ  ARG B   2       9.909   0.288   4.952  0.00  0.00    +0.000 C 
ATOM     18  NH1 ARG B   2      10.596   1.113   4.167  0.00  0.00    +0.000 N 
ATOM     19  NH2 ARG B   2      10.400  -0.067   6.131  0.00  0.00    +0.000 N 
ATOM     20  N   ASP B   3       5.553  -4.399   1.728  0.00  0.00    +0.000 N 
ATOM     21  CA  ASP B   3       5.074  -5.761   1.918  0.00  0.00    +0.000 C 
ATOM     22  C   ASP B   3       4.833  -6.477   0.584  0.00  0.00    +0.000 C 
ATOM     23  O   ASP B   3       3.866  -7.234   0.444  0.00  0.00    +0.000 OA
ATOM     24  CB  ASP B   3       3.812  -5.780   2.796  0.00  0.00    +0.000 C 
ATOM     25  CG  ASP B   3       2.797  -4.723   2.412  0.00  0.00    +0.000 C 
ATOM     26  OD1 ASP B   3       2.821  -4.247   1.253  0.00  0.00    +0.000 OA
ATOM     27  OD2 ASP B   3       1.961  -4.360   3.269  0.00  0.00    +0.000 OA
ATOM     28  N   PHE B   4       5.730  -6.280  -0.365  0.00  0.00    +0.000 N 
ATOM     29  CA  PHE B   4       5.544  -6.872  -1.687  0.00  0.00    +0.000 C 
ATOM     30  C   PHE B   4       5.759  -8.379  -1.711  0.00  0.00    +0.000 C 
ATOM     31  O   PHE B   4       5.421  -9.024  -2.710  0.00  0.00    +0.000 OA
ATOM     32  CB  PHE B   4       6.449  -6.190  -2.721  0.00  0.00    +0.000 C 
ATOM     33  CG  PHE B   4       7.919  -6.333  -2.447  0.00  0.00    +0.000 A 
ATOM     34  CD1 PHE B   4       8.616  -7.442  -2.888  0.00  0.00    +0.000 A 
ATOM     35  CD2 PHE B   4       8.606  -5.341  -1.760  0.00  0.00    +0.000 A 
ATOM     36  CE1 PHE B   4       9.979  -7.574  -2.644  0.00  0.00    +0.000 A 
ATOM     37  CE2 PHE B   4       9.962  -5.464  -1.511  0.00  0.00    +0.000 A 
ATOM     38  CZ  PHE B   4      10.646  -6.582  -1.955  0.00  0.00    +0.000 A 
ATOM     39  N   LEU B   5       6.302  -8.952  -0.659  0.00  0.00    +0.000 N 
ATOM     40  CA  LEU B   5       6.489 -10.399  -0.581  0.00  0.00    +0.000 C 
ATOM     41  C   LEU B   5       5.319 -11.107   0.092  0.00  0.00    +0.000 C 
ATOM     42  O   LEU B   5       5.331 -12.337   0.205  0.00  0.00    +0.000 OA
ATOM     43  CB  LEU B   5       7.790 -10.734   0.154  0.00  0.00    +0.000 C 
ATOM     44  CG  LEU B   5       9.085 -10.443  -0.604  0.00  0.00    +0.000 C 
ATOM     45  CD2 LEU B   5      10.286 -10.747   0.279  0.00  0.00    +0.000 C 
ATOM     46  CD1 LEU B   5       9.143 -11.250  -1.891  0.00  0.00    +0.000 C 
ATOM     47  H   ASN B   1       4.815  -0.730  -2.281  0.00  0.00    +0.000 HD
ATOM     48  H   ASN B   1       4.966  -0.572  -0.630  0.00  0.00    +0.000 HD
ATOM     49  H   ASN B   1       4.743  -2.078  -1.306  0.00  0.00    +0.000 HD
ATOM     50  H   ASN B   1       9.070   1.272  -0.516  0.00  0.00    +0.000 HD
ATOM     51  H   ASN B   1       8.110   2.221   0.527  0.00  0.00    +0.000 HD
ATOM     52  H   ARG B   2       5.694  -1.454   0.849  0.00  0.00    +0.000 HD
ATOM     53  H   ARG B   2       8.266  -0.789   5.187  0.00  0.00    +0.000 HD
ATOM     54  H   ARG B   2      10.232   1.377   3.291  0.00  0.00    +0.000 HD
ATOM     55  H   ARG B   2      11.469   1.460   4.462  0.00  0.00    +0.000 HD
ATOM     56  H   ARG B   2      11.274   0.278   6.425  0.00  0.00    +0.000 HD
ATOM     57  H   ARG B   2       9.891  -0.676   6.713  0.00  0.00    +0.000 HD
ATOM     58  H   ASP B   3       4.970  -3.749   1.274  0.00  0.00    +0.000 HD
ATOM     59  H   PHE B   4       6.527  -5.732  -0.181  0.00  0.00    +0.000 HD
ATOM     60  H   LEU B   5       6.590  -8.391   0.097  0.00  0.00    +0.000 HD
TER 
REMARK  Name = /data/user_data/xianyang/t3-aimnet-affinity-balanced/L4/P43341/pocket.pdb
REMARK                            x       y       z     vdW  Elec       q    Type
REMARK                         _______ _______ _______ _____ _____    ______ ____
ATOM      1  N   TYR C   1      14.479   4.467  -6.455  0.00  0.00    +0.000 N 
ATOM      2  CA  TYR C   1      13.464   3.523  -6.014  0.00  0.00    +0.000 C 
ATOM      3  C   TYR C   1      13.011   2.624  -7.161  0.00  0.00    +0.000 C 
ATOM      4  O   TYR C   1      12.824   1.417  -6.964  0.00  0.00    +0.000 OA
ATOM      5  CB  TYR C   1      12.250   4.238  -5.412  0.00  0.00    +0.000 C 
ATOM      6  CG  TYR C   1      11.106   3.272  -5.244  0.00  0.00    +0.000 A 
ATOM      7  CD2 TYR C   1      11.157   2.281  -4.269  0.00  0.00    +0.000 A 
ATOM      8  CD1 TYR C   1      10.012   3.294  -6.102  0.00  0.00    +0.000 A 
ATOM      9  CE2 TYR C   1      10.137   1.356  -4.131  0.00  0.00    +0.000 A 
ATOM     10  CE1 TYR C   1       8.986   2.376  -5.970  0.00  0.00    +0.000 A 
ATOM     11  CZ  TYR C   1       9.054   1.411  -4.987  0.00  0.00    +0.000 A 
ATOM     12  OH  TYR C   1       8.043   0.487  -4.862  0.00  0.00    +0.000 OA
ATOM     13  H   TYR C   1      15.270   3.957  -6.849  0.00  0.00    +0.000 HD
ATOM     14  H   TYR C   1      14.795   5.023  -5.660  0.00  0.00    +0.000 HD
ATOM     15  H   TYR C   1      14.084   5.083  -7.165  0.00  0.00    +0.000 HD
ATOM     16  H   TYR C   1       7.306   0.518  -5.439  0.00  0.00    +0.000 HD
TER 
REMARK  Name = /data/user_data/xianyang/t3-aimnet-affinity-balanced/L4/P43341/pocket.pdb
REMARK                            x       y       z     vdW  Elec       q    Type
REMARK                         _______ _______ _______ _____ _____    ______ ____
ATOM      1  N   PHE D   1      15.433  -0.111  -7.652  0.00  0.00    +0.000 N 
ATOM      2  CA  PHE D   1      15.275  -1.090  -6.581  0.00  0.00    +0.000 C 
ATOM      3  C   PHE D   1      14.051  -1.965  -6.826  0.00  0.00    +0.000 C 
ATOM      4  O   PHE D   1      14.113  -3.192  -6.685  0.00  0.00    +0.000 OA
ATOM      5  CB  PHE D   1      15.173  -0.372  -5.236  0.00  0.00    +0.000 C 
ATOM      6  CG  PHE D   1      14.658  -1.235  -4.118  0.00  0.00    +0.000 A 
ATOM      7  CD2 PHE D   1      15.509  -2.078  -3.422  0.00  0.00    +0.000 A 
ATOM      8  CD1 PHE D   1      13.315  -1.207  -3.768  0.00  0.00    +0.000 A 
ATOM      9  CE2 PHE D   1      15.036  -2.879  -2.393  0.00  0.00    +0.000 A 
ATOM     10  CE1 PHE D   1      12.832  -2.003  -2.738  0.00  0.00    +0.000 A 
ATOM     11  CZ  PHE D   1      13.697  -2.838  -2.053  0.00  0.00    +0.000 A 
ATOM     12  H   PHE D   1      15.501  -0.595  -8.547  0.00  0.00    +0.000 HD
ATOM     13  H   PHE D   1      16.282   0.432  -7.494  0.00  0.00    +0.000 HD
ATOM     14  H   PHE D   1      14.627   0.514  -7.663  0.00  0.00    +0.000 HD
TER 
REMARK  Name = /data/user_data/xianyang/t3-aimnet-affinity-balanced/L4/P43341/pocket.pdb
REMARK                            x       y       z     vdW  Elec       q    Type
REMARK                         _______ _______ _______ _____ _____    ______ ____
ATOM      1  N   LYS E   1      14.429  -4.600  -9.455  0.00  0.00    +0.000 N 
ATOM      2  CA  LYS E   1      15.289  -5.697  -9.030  0.00  0.00    +0.000 C 
ATOM      3  C   LYS E   1      14.544  -6.695  -8.153  0.00  0.00    +0.000 C 
ATOM      4  O   LYS E   1      14.543  -7.896  -8.432  0.00  0.00    +0.000 OA
ATOM      5  CB  LYS E   1      16.509  -5.126  -8.305  0.00  0.00    +0.000 C 
ATOM      6  CG  LYS E   1      17.547  -6.150  -7.921  0.00  0.00    +0.000 C 
ATOM      7  CD  LYS E   1      18.754  -5.478  -7.283  0.00  0.00    +0.000 C 
ATOM      8  CE  LYS E   1      19.371  -4.451  -8.222  0.00  0.00    +0.000 C 
ATOM      9  NZ  LYS E   1      20.456  -3.689  -7.560  0.00  0.00    +0.000 N 
ATOM     10  N   VAL E   2      13.891  -6.217  -7.091  0.00  0.00    +0.000 N 
ATOM     11  CA  VAL E   2      13.306  -7.125  -6.110  0.00  0.00    +0.000 C 
ATOM     12  C   VAL E   2      12.003  -7.737  -6.606  0.00  0.00    +0.000 C 
ATOM     13  O   VAL E   2      11.518  -8.702  -6.012  0.00  0.00    +0.000 OA
ATOM     14  CB  VAL E   2      13.081  -6.434  -4.750  0.00  0.00    +0.000 C 
ATOM     15  CG2 VAL E   2      14.412  -5.960  -4.183  0.00  0.00    +0.000 C 
ATOM     16  CG1 VAL E   2      12.095  -5.281  -4.879  0.00  0.00    +0.000 C 
ATOM     17  N   HIS E   3      11.420  -7.210  -7.662  0.00  0.00    +0.000 N 
ATOM     18  CA  HIS E   3      10.198  -7.789  -8.210  0.00  0.00    +0.000 C 
ATOM     19  C   HIS E   3      10.472  -8.868  -9.252  0.00  0.00    +0.000 C 
ATOM     20  O   HIS E   3       9.529  -9.377  -9.861  0.00  0.00    +0.000 OA
ATOM     21  CB  HIS E   3       9.286  -6.705  -8.785  0.00  0.00    +0.000 C 
ATOM     22  CG  HIS E   3       8.480  -5.994  -7.734  0.00  0.00    +0.000 C 
ATOM     23  ND1 HIS E   3       7.142  -6.237  -7.535  0.00  0.00    +0.000 NA
ATOM     24  CD2 HIS E   3       8.832  -5.058  -6.824  0.00  0.00    +0.000 C 
ATOM     25  CE1 HIS E   3       6.701  -5.478  -6.547  0.00  0.00    +0.000 C 
ATOM     26  NE2 HIS E   3       7.711  -4.751  -6.094  0.00  0.00    +0.000 NA
ATOM     27  N   LYS E   4      11.747  -9.227  -9.459  0.00  0.00    +0.000 N 
ATOM     28  CA  LYS E   4      12.067 -10.380 -10.292  0.00  0.00    +0.000 C 
ATOM     29  C   LYS E   4      11.652 -11.652  -9.556  0.00  0.00    +0.000 C 
ATOM     30  O   LYS E   4      12.097 -11.892  -8.434  0.00  0.00    +0.000 OA
ATOM     31  CB  LYS E   4      13.564 -10.434 -10.597  0.00  0.00    +0.000 C 
ATOM     32  CG  LYS E   4      14.126  -9.186 -11.254  0.00  0.00    +0.000 C 
ATOM     33  CD  LYS E   4      13.627  -9.029 -12.681  0.00  0.00    +0.000 C 
ATOM     34  CE  LYS E   4      14.295  -7.841 -13.361  0.00  0.00    +0.000 C 
ATOM     35  NZ  LYS E   4      13.733  -7.606 -14.722  0.00  0.00    +0.000 N 
ATOM     36  H   LYS E   1      14.963  -3.956 -10.038  0.00  0.00    +0.000 HD
ATOM     37  H   LYS E   1      14.079  -4.105  -8.635  0.00  0.00    +0.000 HD
ATOM     38  H   LYS E   1      13.644  -4.971  -9.990  0.00  0.00    +0.000 HD
ATOM     39  H   LYS E   1      21.197  -4.330  -7.275  0.00  0.00    +0.000 HD
ATOM     40  H   LYS E   1      20.084  -3.212  -6.739  0.00  0.00    +0.000 HD
ATOM     41  H   LYS E   1      20.834  -3.001  -8.211  0.00  0.00    +0.000 HD
ATOM     42  H   VAL E   2      13.804  -5.244  -6.969  0.00  0.00    +0.000 HD
ATOM     43  H   HIS E   3      11.814  -6.414  -8.088  0.00  0.00    +0.000 HD
ATOM     44  H   LYS E   4      12.474  -8.708  -9.045  0.00  0.00    +0.000 HD
ATOM     45  H   LYS E   4      12.736  -7.402 -14.648  0.00  0.00    +0.000 HD
ATOM     46  H   LYS E   4      13.867  -8.440 -15.294  0.00  0.00    +0.000 HD
ATOM     47  H   LYS E   4      14.211  -6.816 -15.155  0.00  0.00    +0.000 HD
TER 
REMARK  Name = /data/user_data/xianyang/t3-aimnet-affinity-balanced/L4/P43341/pocket.pdb
REMARK                            x       y       z     vdW  Elec       q    Type
REMARK                         _______ _______ _______ _____ _____    ______ ____
ATOM      1  N   LEU F   1      14.475 -13.793  -8.102  0.00  0.00    +0.000 N 
ATOM      2  CA  LEU F   1      15.154 -13.226  -6.945  0.00  0.00    +0.000 C 
ATOM      3  C   LEU F   1      14.295 -13.372  -5.697  0.00  0.00    +0.000 C 
ATOM      4  O   LEU F   1      14.816 -13.644  -4.611  0.00  0.00    +0.000 OA
ATOM      5  CB  LEU F   1      15.503 -11.759  -7.192  0.00  0.00    +0.000 C 
ATOM      6  CG  LEU F   1      16.300 -11.054  -6.102  0.00  0.00    +0.000 C 
ATOM      7  CD2 LEU F   1      17.604 -11.789  -5.821  0.00  0.00    +0.000 C 
ATOM      8  CD1 LEU F   1      16.568  -9.603  -6.494  0.00  0.00    +0.000 C 
ATOM      9  N   GLN F   2      12.986 -13.194  -5.825  0.00  0.00    +0.000 N 
ATOM     10  CA  GLN F   2      12.095 -13.398  -4.690  0.00  0.00    +0.000 C 
ATOM     11  C   GLN F   2      12.147 -14.846  -4.216  0.00  0.00    +0.000 C 
ATOM     12  O   GLN F   2      12.181 -15.107  -3.008  0.00  0.00    +0.000 OA
ATOM     13  CB  GLN F   2      10.666 -13.005  -5.056  0.00  0.00    +0.000 C 
ATOM     14  CG  GLN F   2      10.508 -11.522  -5.362  0.00  0.00    +0.000 C 
ATOM     15  CD  GLN F   2       9.083 -11.146  -5.699  0.00  0.00    +0.000 C 
ATOM     16  OE1 GLN F   2       8.218 -12.004  -5.847  0.00  0.00    +0.000 OA
ATOM     17  NE2 GLN F   2       8.825  -9.852  -5.819  0.00  0.00    +0.000 N 
ATOM     18  N   THR F   3      12.158 -15.789  -5.145  0.00  0.00    +0.000 N 
ATOM     19  CA  THR F   3      12.262 -17.193  -4.777  0.00  0.00    +0.000 C 
ATOM     20  C   THR F   3      13.570 -17.461  -4.044  0.00  0.00    +0.000 C 
ATOM     21  O   THR F   3      13.590 -18.176  -3.034  0.00  0.00    +0.000 OA
ATOM     22  CB  THR F   3      12.159 -18.078  -6.023  0.00  0.00    +0.000 C 
ATOM     23  OG1 THR F   3      10.882 -17.872  -6.637  0.00  0.00    +0.000 OA
ATOM     24  CG2 THR F   3      12.313 -19.543  -5.648  0.00  0.00    +0.000 C 
ATOM     25  H   LEU F   1      15.064 -13.687  -8.928  0.00  0.00    +0.000 HD
ATOM     26  H   LEU F   1      13.591 -13.306  -8.250  0.00  0.00    +0.000 HD
ATOM     27  H   LEU F   1      14.294 -14.783  -7.939  0.00  0.00    +0.000 HD
ATOM     28  H   GLN F   2      12.614 -12.922  -6.695  0.00  0.00    +0.000 HD
ATOM     29  H   GLN F   2       7.914  -9.550  -6.037  0.00  0.00    +0.000 HD
ATOM     30  H   GLN F   2       9.544  -9.193  -5.690  0.00  0.00    +0.000 HD
ATOM     31  H   THR F   3      12.095 -15.538  -6.095  0.00  0.00    +0.000 HD
ATOM     32  H   THR F   3      10.180 -18.112  -6.012  0.00  0.00    +0.000 HD
TER 
REMARK  Name = /data/user_data/xianyang/t3-aimnet-affinity-balanced/L4/P43341/pocket.pdb
REMARK                            x       y       z     vdW  Elec       q    Type
REMARK                         _______ _______ _______ _____ _____    ______ ____
ATOM      1  N   PHE G   1      15.405 -15.284  -2.336  0.00  0.00    +0.000 N 
ATOM      2  CA  PHE G   1      15.362 -14.651  -1.022  0.00  0.00    +0.000 C 
ATOM      3  C   PHE G   1      14.521 -15.462  -0.044  0.00  0.00    +0.000 C 
ATOM      4  O   PHE G   1      14.922 -15.678   1.102  0.00  0.00    +0.000 OA
ATOM      5  CB  PHE G   1      14.812 -13.231  -1.141  0.00  0.00    +0.000 C 
ATOM      6  CG  PHE G   1      14.671 -12.526   0.178  0.00  0.00    +0.000 A 
ATOM      7  CD1 PHE G   1      15.768 -11.947   0.790  0.00  0.00    +0.000 A 
ATOM      8  CD2 PHE G   1      13.435 -12.452   0.806  0.00  0.00    +0.000 A 
ATOM      9  CE1 PHE G   1      15.644 -11.299   2.011  0.00  0.00    +0.000 A 
ATOM     10  CE2 PHE G   1      13.303 -11.805   2.029  0.00  0.00    +0.000 A 
ATOM     11  CZ  PHE G   1      14.408 -11.230   2.628  0.00  0.00    +0.000 A 
ATOM     12  H   PHE G   1      15.974 -14.719  -2.967  0.00  0.00    +0.000 HD
ATOM     13  H   PHE G   1      14.458 -15.360  -2.708  0.00  0.00    +0.000 HD
ATOM     14  H   PHE G   1      15.813 -16.215  -2.252  0.00  0.00    +0.000 HD
TER 
REMARK  Name = /data/user_data/xianyang/t3-aimnet-affinity-balanced/L4/P43341/pocket.pdb
REMARK                            x       y       z     vdW  Elec       q    Type
REMARK                         _______ _______ _______ _____ _____    ______ ____
ATOM      1  N   LEU H   1      16.082 -18.439   1.749  0.00  0.00    +0.000 N 
ATOM      2  CA  LEU H   1      17.057 -18.229   2.810  0.00  0.00    +0.000 C 
ATOM      3  C   LEU H   1      16.443 -18.545   4.170  0.00  0.00    +0.000 C 
ATOM      4  O   LEU H   1      15.227 -18.436   4.353  0.00  0.00    +0.000 OA
ATOM      5  CB  LEU H   1      17.565 -16.787   2.793  0.00  0.00    +0.000 C 
ATOM      6  CG  LEU H   1      18.346 -16.345   1.562  0.00  0.00    +0.000 C 
ATOM      7  CD2 LEU H   1      18.591 -14.841   1.606  0.00  0.00    +0.000 C 
ATOM      8  CD1 LEU H   1      19.659 -17.109   1.463  0.00  0.00    +0.000 C 
ATOM      9  H   LEU H   1      16.508 -18.223   0.848  0.00  0.00    +0.000 HD
ATOM     10  H   LEU H   1      15.279 -17.829   1.900  0.00  0.00    +0.000 HD
ATOM     11  H   LEU H   1      15.776 -19.412   1.756  0.00  0.00    +0.000 HD
TER 
REMARK  Name = /data/user_data/xianyang/t3-aimnet-affinity-balanced/L4/P43341/pocket.pdb
REMARK                            x       y       z     vdW  Elec       q    Type
REMARK                         _______ _______ _______ _____ _____    ______ ____
ATOM      1  N   ARG I   1      16.969 -13.748   6.525  0.00  0.00    +0.000 N 
ATOM      2  CA  ARG I   1      16.044 -12.776   5.954  0.00  0.00    +0.000 C 
ATOM      3  C   ARG I   1      15.783 -11.619   6.907  0.00  0.00    +0.000 C 
ATOM      4  O   ARG I   1      15.695 -10.462   6.480  0.00  0.00    +0.000 OA
ATOM      5  CB  ARG I   1      14.733 -13.460   5.569  0.00  0.00    +0.000 C 
ATOM      6  CG  ARG I   1      14.822 -14.306   4.314  0.00  0.00    +0.000 C 
ATOM      7  CD  ARG I   1      13.469 -14.892   3.954  0.00  0.00    +0.000 C 
ATOM      8  NE  ARG I   1      13.283 -16.205   4.562  0.00  0.00    +0.000 N 
ATOM      9  CZ  ARG I   1      12.096 -16.743   4.832  0.00  0.00    +0.000 C 
ATOM     10  NH1 ARG I   1      10.981 -16.072   4.563  0.00  0.00    +0.000 N 
ATOM     11  NH2 ARG I   1      12.024 -17.953   5.355  0.00  0.00    +0.000 N 
ATOM     12  H   ARG I   1      17.119 -14.506   5.859  0.00  0.00    +0.000 HD
ATOM     13  H   ARG I   1      16.576 -14.125   7.387  0.00  0.00    +0.000 HD
ATOM     14  H   ARG I   1      17.859 -13.292   6.727  0.00  0.00    +0.000 HD
ATOM     15  H   ARG I   1      14.087 -16.727   4.787  0.00  0.00    +0.000 HD
ATOM     16  H   ARG I   1      11.032 -15.169   4.173  0.00  0.00    +0.000 HD
ATOM     17  H   ARG I   1      10.104 -16.477   4.754  0.00  0.00    +0.000 HD
ATOM     18  H   ARG I   1      12.848 -18.453   5.555  0.00  0.00    +0.000 HD
ATOM     19  H   ARG I   1      11.146 -18.356   5.545  0.00  0.00    +0.000 HD
TER 
REMARK  Name = /data/user_data/xianyang/t3-aimnet-affinity-balanced/L4/P43341/pocket.pdb
REMARK                            x       y       z     vdW  Elec       q    Type
REMARK                         _______ _______ _______ _____ _____    ______ ____
ATOM      1  N   ILE J   1      18.785  -9.257   6.786  0.00  0.00    +0.000 N 
ATOM      2  CA  ILE J   1      18.813  -8.495   5.545  0.00  0.00    +0.000 C 
ATOM      3  C   ILE J   1      17.754  -7.397   5.570  0.00  0.00    +0.000 C 
ATOM      4  O   ILE J   1      18.018  -6.253   5.186  0.00  0.00    +0.000 OA
ATOM      5  CB  ILE J   1      18.618  -9.426   4.334  0.00  0.00    +0.000 C 
ATOM      6  CG1 ILE J   1      19.825 -10.356   4.188  0.00  0.00    +0.000 C 
ATOM      7  CG2 ILE J   1      18.403  -8.618   3.065  0.00  0.00    +0.000 C 
ATOM      8  CD1 ILE J   1      19.631 -11.441   3.146  0.00  0.00    +0.000 C 
ATOM      9  N   ALA J   2      16.550  -7.733   6.015  0.00  0.00    +0.000 N 
ATOM     10  CA  ALA J   2      15.474  -6.752   6.052  0.00  0.00    +0.000 C 
ATOM     11  C   ALA J   2      15.810  -5.596   6.988  0.00  0.00    +0.000 C 
ATOM     12  O   ALA J   2      15.566  -4.432   6.656  0.00  0.00    +0.000 OA
ATOM     13  CB  ALA J   2      14.165  -7.419   6.473  0.00  0.00    +0.000 C 
ATOM     14  N   ALA J   3      16.360  -5.906   8.154  0.00  0.00    +0.000 N 
ATOM     15  CA  ALA J   3      16.714  -4.854   9.096  0.00  0.00    +0.000 C 
ATOM     16  C   ALA J   3      17.748  -3.910   8.497  0.00  0.00    +0.000 C 
ATOM     17  O   ALA J   3      17.665  -2.690   8.675  0.00  0.00    +0.000 OA
ATOM     18  CB  ALA J   3      17.233  -5.460  10.398  0.00  0.00    +0.000 C 
ATOM     19  H   ILE J   1      19.498  -9.986   6.754  0.00  0.00    +0.000 HD
ATOM     20  H   ILE J   1      17.866  -9.685   6.902  0.00  0.00    +0.000 HD
ATOM     21  H   ILE J   1      18.971  -8.634   7.572  0.00  0.00    +0.000 HD
ATOM     22  H   ALA J   2      16.383  -8.653   6.323  0.00  0.00    +0.000 HD
ATOM     23  H   ALA J   3      16.529  -6.848   8.383  0.00  0.00    +0.000 HD
TER 
REMARK  Name = /data/user_data/xianyang/t3-aimnet-affinity-balanced/L4/P43341/pocket.pdb
REMARK                            x       y       z     vdW  Elec       q    Type
REMARK                         _______ _______ _______ _____ _____    ______ ____
ATOM      1  N   MET K   1      18.281  -3.321   5.259  0.00  0.00    +0.000 N 
ATOM      2  CA  MET K   1      17.688  -2.555   4.173  0.00  0.00    +0.000 C 
ATOM      3  C   MET K   1      16.786  -1.445   4.696  0.00  0.00    +0.000 C 
ATOM      4  O   MET K   1      16.748  -0.360   4.116  0.00  0.00    +0.000 OA
ATOM      5  CB  MET K   1      16.915  -3.472   3.228  0.00  0.00    +0.000 C 
ATOM      6  CG  MET K   1      17.804  -4.379   2.403  0.00  0.00    +0.000 C 
ATOM      7  SD  MET K   1      16.877  -5.361   1.201  0.00  0.00    +0.000 S 
ATOM      8  CE  MET K   1      16.205  -4.066   0.158  0.00  0.00    +0.000 C 
ATOM      9  N   ARG K   2      16.055  -1.708   5.778  0.00  0.00    +0.000 N 
ATOM     10  CA  ARG K   2      15.214  -0.661   6.346  0.00  0.00    +0.000 C 
ATOM     11  C   ARG K   2      16.060   0.479   6.905  0.00  0.00    +0.000 C 
ATOM     12  O   ARG K   2      15.684   1.648   6.775  0.00  0.00    +0.000 OA
ATOM     13  CB  ARG K   2      14.305  -1.231   7.436  0.00  0.00    +0.000 C 
ATOM     14  CG  ARG K   2      13.214  -2.147   6.921  0.00  0.00    +0.000 C 
ATOM     15  CD  ARG K   2      12.134  -2.370   7.964  0.00  0.00    +0.000 C 
ATOM     16  NE  ARG K   2      12.683  -2.861   9.229  0.00  0.00    +0.000 N 
ATOM     17  CZ  ARG K   2      12.938  -4.134   9.499  0.00  0.00    +0.000 C 
ATOM     18  NH1 ARG K   2      12.693  -5.067   8.598  0.00  0.00    +0.000 N 
ATOM     19  NH2 ARG K   2      13.435  -4.460  10.684  0.00  0.00    +0.000 N 
ATOM     20  H   MET K   1      18.877  -4.053   4.873  0.00  0.00    +0.000 HD
ATOM     21  H   MET K   1      17.542  -3.745   5.819  0.00  0.00    +0.000 HD
ATOM     22  H   MET K   1      18.840  -2.702   5.846  0.00  0.00    +0.000 HD
ATOM     23  H   ARG K   2      16.082  -2.601   6.191  0.00  0.00    +0.000 HD
ATOM     24  H   ARG K   2      12.877  -2.198   9.930  0.00  0.00    +0.000 HD
ATOM     25  H   ARG K   2      12.324  -4.818   7.720  0.00  0.00    +0.000 HD
ATOM     26  H   ARG K   2      12.879  -6.011   8.804  0.00  0.00    +0.000 HD
ATOM     27  H   ARG K   2      13.628  -5.402  10.895  0.00  0.00    +0.000 HD
ATOM     28  H   ARG K   2      13.611  -3.760  11.353  0.00  0.00    +0.000 HD
TER 
REMARK  Name = /data/user_data/xianyang/t3-aimnet-affinity-balanced/L4/P43341/pocket.pdb
REMARK                            x       y       z     vdW  Elec       q    Type
REMARK                         _______ _______ _______ _____ _____    ______ ____
ATOM      1  N   SER L   1      17.164   2.439   3.943  0.00  0.00    +0.000 N 
ATOM      2  CA  SER L   1      16.038   3.165   3.375  0.00  0.00    +0.000 C 
ATOM      3  CB  SER L   1      15.702   4.402   4.202  0.00  0.00    +0.000 C 
ATOM      4  OG  SER L   1      15.316   5.438   3.647  0.00  0.00    +0.000 OA
ATOM      5  C   SER L   1      14.822   2.247   3.270  0.00  0.00    +0.000 C 
ATOM      6  O   SER L   1      13.693   2.951   2.790  0.00  0.00    +0.000 OA
ATOM      7  H   SER L   1      17.364   1.619   3.370  0.00  0.00    +0.000 HD
ATOM      8  H   SER L   1      16.934   2.142   4.891  0.00  0.00    +0.000 HD
ATOM      9  H   SER L   1      17.983   3.046   3.966  0.00  0.00    +0.000 HD
ATOM     10  H   SER L   1      13.882   3.301   1.905  0.00  0.00    +0.000 HD
TER 
REMARK  Name = /data/user_data/xianyang/t3-aimnet-affinity-balanced/L4/P43341/pocket.pdb
REMARK                            x       y       z     vdW  Elec       q    Type
REMARK                         _______ _______ _______ _____ _____    ______ ____
ATOM      1  N   ASN M   1      15.616   8.310   2.567  0.00  0.00    +0.000 N 
ATOM      2  CA  ASN M   1      14.480   9.219   2.550  0.00  0.00    +0.000 C 
ATOM      3  C   ASN M   1      14.837  10.584   3.126  0.00  0.00    +0.000 C 
ATOM      4  O   ASN M   1      14.256  11.597   2.721  0.00  0.00    +0.000 OA
ATOM      5  CB  ASN M   1      13.306   8.617   3.312  0.00  0.00    +0.000 C 
ATOM      6  CG  ASN M   1      12.653   7.475   2.560  0.00  0.00    +0.000 C 
ATOM      7  OD1 ASN M   1      12.918   7.260   1.380  0.00  0.00    +0.000 OA
ATOM      8  ND2 ASN M   1      11.786   6.735   3.247  0.00  0.00    +0.000 N 
ATOM      9  H   ASN M   1      16.393   8.727   2.054  0.00  0.00    +0.000 HD
ATOM     10  H   ASN M   1      15.352   7.428   2.128  0.00  0.00    +0.000 HD
ATOM     11  H   ASN M   1      15.899   8.138   3.532  0.00  0.00    +0.000 HD
ATOM     12  H   ASN M   1      11.330   5.979   2.811  0.00  0.00    +0.000 HD
ATOM     13  H   ASN M   1      11.600   6.944   4.191  0.00  0.00    +0.000 HD
TER 
REMARK  Name = /data/user_data/xianyang/t3-aimnet-affinity-balanced/L4/P43341/pocket.pdb
REMARK                            x       y       z     vdW  Elec       q    Type
REMARK                         _______ _______ _______ _____ _____    ______ ____
ATOM      1  N   HIS N   1       0.888   5.576  -0.675  0.00  0.00    +0.000 N 
ATOM      2  CA  HIS N   1       2.348   5.576  -0.833  0.00  0.00    +0.000 C 
ATOM      3  C   HIS N   1       3.007   6.929  -0.599  0.00  0.00    +0.000 C 
ATOM      4  O   HIS N   1       4.054   6.994   0.051  0.00  0.00    +0.000 OA
ATOM      5  CB  HIS N   1       2.771   5.029  -2.196  0.00  0.00    +0.000 C 
ATOM      6  CG  HIS N   1       4.252   5.009  -2.397  0.00  0.00    +0.000 A 
ATOM      7  ND1 HIS N   1       5.105   4.222  -1.671  0.00  0.00    +0.000 N 
ATOM      8  CD2 HIS N   1       5.026   5.724  -3.251  0.00  0.00    +0.000 A 
ATOM      9  CE1 HIS N   1       6.347   4.442  -2.069  0.00  0.00    +0.000 A 
ATOM     10  NE2 HIS N   1       6.332   5.348  -3.025  0.00  0.00    +0.000 NA
ATOM     11  H   HIS N   1       0.527   4.638  -0.848  0.00  0.00    +0.000 HD
ATOM     12  H   HIS N   1       0.474   6.227  -1.342  0.00  0.00    +0.000 HD
ATOM     13  H   HIS N   1       0.649   5.863   0.274  0.00  0.00    +0.000 HD
ATOM     14  H   HIS N   1       4.836   3.592  -0.964  0.00  0.00    +0.000 HD
TER 
