REMARK  Name = /data/user_data/xianyang/t3-aimnet-affinity-balanced/L4/Q9HB14/pocket.pdb
REMARK                            x       y       z     vdW  Elec       q    Type
REMARK                         _______ _______ _______ _____ _____    ______ ____
ATOM      1  N   VAL A   1      98.441 108.903 118.674  0.00  0.00    +0.000 N 
ATOM      2  CA  VAL A   1      98.324 107.874 119.709  0.00  0.00    +0.000 C 
ATOM      3  C   VAL A   1      99.544 106.956 119.698  0.00  0.00    +0.000 C 
ATOM      4  O   VAL A   1     100.122 106.644 120.749  0.00  0.00    +0.000 OA
ATOM      5  CB  VAL A   1      97.017 107.081 119.536  0.00  0.00    +0.000 C 
ATOM      6  CG2 VAL A   1      96.955 105.943 120.538  0.00  0.00    +0.000 C 
ATOM      7  CG1 VAL A   1      95.819 108.000 119.699  0.00  0.00    +0.000 C 
ATOM      8  N   GLY A   2      99.959 106.516 118.509  0.00  0.00    +0.000 N 
ATOM      9  CA  GLY A   2     101.054 105.568 118.417  0.00  0.00    +0.000 C 
ATOM     10  C   GLY A   2     102.389 106.158 118.823  0.00  0.00    +0.000 C 
ATOM     11  O   GLY A   2     103.205 105.481 119.445  0.00  0.00    +0.000 OA
ATOM     12  H   VAL A   1      97.618 109.505 118.698  0.00  0.00    +0.000 HD
ATOM     13  H   VAL A   1      98.511 108.458 117.759  0.00  0.00    +0.000 HD
ATOM     14  H   VAL A   1      99.276 109.463 118.844  0.00  0.00    +0.000 HD
ATOM     15  H   GLY A   2      99.520 106.837 117.688  0.00  0.00    +0.000 HD
TER 
REMARK  Name = /data/user_data/xianyang/t3-aimnet-affinity-balanced/L4/Q9HB14/pocket.pdb
REMARK                            x       y       z     vdW  Elec       q    Type
REMARK                         _______ _______ _______ _____ _____    ______ ____
ATOM      1  N   SER B   1     102.435 106.238 122.561  0.00  0.00    +0.000 N 
ATOM      2  CA  SER B   1     102.702 104.897 123.072  0.00  0.00    +0.000 C 
ATOM      3  CB  SER B   1     104.159 104.504 122.866  0.00  0.00    +0.000 C 
ATOM      4  OG  SER B   1     104.758 103.838 123.715  0.00  0.00    +0.000 OA
ATOM      5  C   SER B   1     101.775 103.885 122.400  0.00  0.00    +0.000 C 
ATOM      6  O   SER B   1     100.427 104.315 122.454  0.00  0.00    +0.000 OA
ATOM      7  H   SER B   1     101.454 106.471 122.714  0.00  0.00    +0.000 HD
ATOM      8  H   SER B   1     102.640 106.268 121.562  0.00  0.00    +0.000 HD
ATOM      9  H   SER B   1     103.024 106.912 123.050  0.00  0.00    +0.000 HD
ATOM     10  H   SER B   1     100.338 105.160 121.987  0.00  0.00    +0.000 HD
TER 
REMARK  Name = /data/user_data/xianyang/t3-aimnet-affinity-balanced/L4/Q9HB14/pocket.pdb
REMARK                            x       y       z     vdW  Elec       q    Type
REMARK                         _______ _______ _______ _____ _____    ______ ____
ATOM      1  N   LEU C   1     102.669  96.503 126.989  0.00  0.00    +0.000 N 
ATOM      2  CA  LEU C   1     102.845  97.609 126.057  0.00  0.00    +0.000 C 
ATOM      3  C   LEU C   1     103.359  97.116 124.713  0.00  0.00    +0.000 C 
ATOM      4  O   LEU C   1     102.901  97.575 123.661  0.00  0.00    +0.000 OA
ATOM      5  CB  LEU C   1     103.795  98.650 126.645  0.00  0.00    +0.000 C 
ATOM      6  CG  LEU C   1     103.934  99.938 125.835  0.00  0.00    +0.000 C 
ATOM      7  CD1 LEU C   1     102.568 100.468 125.437  0.00  0.00    +0.000 C 
ATOM      8  CD2 LEU C   1     104.699 100.979 126.626  0.00  0.00    +0.000 C 
ATOM      9  H   LEU C   1     102.033  95.816 126.585  0.00  0.00    +0.000 HD
ATOM     10  H   LEU C   1     102.279  96.854 127.864  0.00  0.00    +0.000 HD
ATOM     11  H   LEU C   1     103.572  96.065 127.171  0.00  0.00    +0.000 HD
TER 
REMARK  Name = /data/user_data/xianyang/t3-aimnet-affinity-balanced/L4/Q9HB14/pocket.pdb
REMARK                            x       y       z     vdW  Elec       q    Type
REMARK                         _______ _______ _______ _____ _____    ______ ____
ATOM      1  N   LEU D   1     100.451  95.423 122.907  0.00  0.00    +0.000 N 
ATOM      2  CA  LEU D   1      99.484  96.413 122.451  0.00  0.00    +0.000 C 
ATOM      3  C   LEU D   1     100.013  97.184 121.251  0.00  0.00    +0.000 C 
ATOM      4  O   LEU D   1      99.262  97.478 120.316  0.00  0.00    +0.000 OA
ATOM      5  CB  LEU D   1      99.130  97.366 123.591  0.00  0.00    +0.000 C 
ATOM      6  CG  LEU D   1      98.181  96.819 124.658  0.00  0.00    +0.000 C 
ATOM      7  CD2 LEU D   1      97.553  97.954 125.448  0.00  0.00    +0.000 C 
ATOM      8  CD1 LEU D   1      97.110  95.944 124.030  0.00  0.00    +0.000 C 
ATOM      9  N   ILE D   2     101.305  97.516 121.254  0.00  0.00    +0.000 N 
ATOM     10  CA  ILE D   2     101.881  98.236 120.124  0.00  0.00    +0.000 C 
ATOM     11  C   ILE D   2     101.898  97.356 118.881  0.00  0.00    +0.000 C 
ATOM     12  O   ILE D   2     101.670  97.835 117.766  0.00  0.00    +0.000 OA
ATOM     13  CB  ILE D   2     103.287  98.753 120.478  0.00  0.00    +0.000 C 
ATOM     14  CG1 ILE D   2     103.195  99.855 121.535  0.00  0.00    +0.000 C 
ATOM     15  CG2 ILE D   2     103.991  99.271 119.236  0.00  0.00    +0.000 C 
ATOM     16  CD1 ILE D   2     104.390 100.779 121.563  0.00  0.00    +0.000 C 
ATOM     17  H   LEU D   1     100.680  94.792 122.139  0.00  0.00    +0.000 HD
ATOM     18  H   LEU D   1     100.052  94.888 123.678  0.00  0.00    +0.000 HD
ATOM     19  H   LEU D   1     101.298  95.895 123.223  0.00  0.00    +0.000 HD
ATOM     20  H   ILE D   2     101.872  97.274 122.022  0.00  0.00    +0.000 HD
TER 
REMARK  Name = /data/user_data/xianyang/t3-aimnet-affinity-balanced/L4/Q9HB14/pocket.pdb
REMARK                            x       y       z     vdW  Elec       q    Type
REMARK                         _______ _______ _______ _____ _____    ______ ____
ATOM      1  N   TYR E   1      98.409  97.340 117.585  0.00  0.00    +0.000 N 
ATOM      2  CA  TYR E   1      98.143  98.644 116.993  0.00  0.00    +0.000 C 
ATOM      3  C   TYR E   1      98.770  98.756 115.611  0.00  0.00    +0.000 C 
ATOM      4  O   TYR E   1      98.145  99.266 114.676  0.00  0.00    +0.000 OA
ATOM      5  CB  TYR E   1      98.673  99.738 117.919  0.00  0.00    +0.000 C 
ATOM      6  CG  TYR E   1      98.127 101.118 117.654  0.00  0.00    +0.000 A 
ATOM      7  CD2 TYR E   1      96.761 101.360 117.669  0.00  0.00    +0.000 A 
ATOM      8  CD1 TYR E   1      98.978 102.184 117.405  0.00  0.00    +0.000 A 
ATOM      9  CE2 TYR E   1      96.260 102.622 117.434  0.00  0.00    +0.000 A 
ATOM     10  CE1 TYR E   1      98.486 103.449 117.170  0.00  0.00    +0.000 A 
ATOM     11  CZ  TYR E   1      97.126 103.663 117.185  0.00  0.00    +0.000 A 
ATOM     12  OH  TYR E   1      96.632 104.923 116.950  0.00  0.00    +0.000 OA
ATOM     13  H   TYR E   1      98.056  96.608 116.968  0.00  0.00    +0.000 HD
ATOM     14  H   TYR E   1      97.943  97.276 118.490  0.00  0.00    +0.000 HD
ATOM     15  H   TYR E   1      99.414  97.223 117.711  0.00  0.00    +0.000 HD
ATOM     16  H   TYR E   1      97.220 105.633 116.780  0.00  0.00    +0.000 HD
TER 
REMARK  Name = /data/user_data/xianyang/t3-aimnet-affinity-balanced/L4/Q9HB14/pocket.pdb
REMARK                            x       y       z     vdW  Elec       q    Type
REMARK                         _______ _______ _______ _____ _____    ______ ____
ATOM      1  N   TYR F   1      95.781 116.032 133.275  0.00  0.00    +0.000 N 
ATOM      2  CA  TYR F   1      94.694 116.327 132.345  0.00  0.00    +0.000 C 
ATOM      3  C   TYR F   1      94.713 117.787 131.911  0.00  0.00    +0.000 C 
ATOM      4  O   TYR F   1      94.541 118.093 130.725  0.00  0.00    +0.000 OA
ATOM      5  CB  TYR F   1      93.348 115.981 132.982  0.00  0.00    +0.000 C 
ATOM      6  CG  TYR F   1      93.070 114.499 133.079  0.00  0.00    +0.000 A 
ATOM      7  CD1 TYR F   1      92.410 113.832 132.056  0.00  0.00    +0.000 A 
ATOM      8  CD2 TYR F   1      93.463 113.769 134.192  0.00  0.00    +0.000 A 
ATOM      9  CE1 TYR F   1      92.150 112.478 132.139  0.00  0.00    +0.000 A 
ATOM     10  CE2 TYR F   1      93.208 112.415 134.283  0.00  0.00    +0.000 A 
ATOM     11  CZ  TYR F   1      92.551 111.775 133.254  0.00  0.00    +0.000 A 
ATOM     12  OH  TYR F   1      92.294 110.426 133.340  0.00  0.00    +0.000 OA
ATOM     13  H   TYR F   1      96.673 116.266 132.840  0.00  0.00    +0.000 HD
ATOM     14  H   TYR F   1      95.767 115.040 133.510  0.00  0.00    +0.000 HD
ATOM     15  H   TYR F   1      95.661 116.584 134.124  0.00  0.00    +0.000 HD
ATOM     16  H   TYR F   1      91.848 109.989 132.642  0.00  0.00    +0.000 HD
TER 
REMARK  Name = /data/user_data/xianyang/t3-aimnet-affinity-balanced/L4/Q9HB14/pocket.pdb
REMARK                            x       y       z     vdW  Elec       q    Type
REMARK                         _______ _______ _______ _____ _____    ______ ____
ATOM      1  N   MET G   1      97.619 118.447 129.579  0.00  0.00    +0.000 N 
ATOM      2  CA  MET G   1      97.333 117.837 128.286  0.00  0.00    +0.000 C 
ATOM      3  C   MET G   1      96.353 118.682 127.485  0.00  0.00    +0.000 C 
ATOM      4  O   MET G   1      96.530 118.870 126.277  0.00  0.00    +0.000 OA
ATOM      5  CB  MET G   1      96.788 116.422 128.481  0.00  0.00    +0.000 C 
ATOM      6  CG  MET G   1      96.921 115.534 127.257  0.00  0.00    +0.000 C 
ATOM      7  SD  MET G   1      95.423 114.598 126.905  0.00  0.00    +0.000 S 
ATOM      8  CE  MET G   1      94.226 115.920 126.756  0.00  0.00    +0.000 C 
ATOM      9  H   MET G   1      97.982 119.390 129.437  0.00  0.00    +0.000 HD
ATOM     10  H   MET G   1      98.313 117.886 130.073  0.00  0.00    +0.000 HD
ATOM     11  H   MET G   1      96.762 118.492 130.131  0.00  0.00    +0.000 HD
TER 
REMARK  Name = /data/user_data/xianyang/t3-aimnet-affinity-balanced/L4/Q9HB14/pocket.pdb
REMARK                            x       y       z     vdW  Elec       q    Type
REMARK                         _______ _______ _______ _____ _____    ______ ____
ATOM      1  N   ILE H   1     100.773 112.605 126.860  0.00  0.00    +0.000 N 
ATOM      2  CA  ILE H   1      99.916 111.481 126.503  0.00  0.00    +0.000 C 
ATOM      3  C   ILE H   1     100.599 110.164 126.835  0.00  0.00    +0.000 C 
ATOM      4  O   ILE H   1      99.932 109.180 127.163  0.00  0.00    +0.000 OA
ATOM      5  CB  ILE H   1      99.510 111.555 125.020  0.00  0.00    +0.000 C 
ATOM      6  CG1 ILE H   1      98.768 112.860 124.737  0.00  0.00    +0.000 C 
ATOM      7  CG2 ILE H   1      98.626 110.376 124.651  0.00  0.00    +0.000 C 
ATOM      8  CD1 ILE H   1      97.941 112.831 123.471  0.00  0.00    +0.000 C 
ATOM      9  H   ILE H   1     100.300 113.479 126.631  0.00  0.00    +0.000 HD
ATOM     10  H   ILE H   1     101.648 112.545 126.339  0.00  0.00    +0.000 HD
ATOM     11  H   ILE H   1     100.971 112.577 127.860  0.00  0.00    +0.000 HD
TER 
REMARK  Name = /data/user_data/xianyang/t3-aimnet-affinity-balanced/L4/Q9HB14/pocket.pdb
REMARK                            x       y       z     vdW  Elec       q    Type
REMARK                         _______ _______ _______ _____ _____    ______ ____
ATOM      1  N   LEU I   1      99.862 109.620 130.408  0.00  0.00    +0.000 N 
ATOM      2  CA  LEU I   1      98.483 109.154 130.538  0.00  0.00    +0.000 C 
ATOM      3  C   LEU I   1      98.355 107.686 130.145  0.00  0.00    +0.000 C 
ATOM      4  O   LEU I   1      97.636 106.918 130.797  0.00  0.00    +0.000 OA
ATOM      5  CB  LEU I   1      97.555 110.018 129.685  0.00  0.00    +0.000 C 
ATOM      6  CG  LEU I   1      96.918 111.222 130.378  0.00  0.00    +0.000 C 
ATOM      7  CD1 LEU I   1      96.011 111.971 129.417  0.00  0.00    +0.000 C 
ATOM      8  CD2 LEU I   1      96.149 110.783 131.611  0.00  0.00    +0.000 C 
ATOM      9  N   ILE I   2      99.041 107.281 129.076  0.00  0.00    +0.000 N 
ATOM     10  CA  ILE I   2      98.993 105.894 128.631  0.00  0.00    +0.000 C 
ATOM     11  C   ILE I   2      99.652 104.980 129.652  0.00  0.00    +0.000 C 
ATOM     12  O   ILE I   2      99.213 103.845 129.845  0.00  0.00    +0.000 OA
ATOM     13  CB  ILE I   2      99.640 105.753 127.241  0.00  0.00    +0.000 C 
ATOM     14  CG1 ILE I   2      98.791 106.463 126.187  0.00  0.00    +0.000 C 
ATOM     15  CG2 ILE I   2      99.808 104.291 126.870  0.00  0.00    +0.000 C 
ATOM     16  CD1 ILE I   2      99.425 106.494 124.818  0.00  0.00    +0.000 C 
ATOM     17  H   LEU I   1      99.916 110.602 130.677  0.00  0.00    +0.000 HD
ATOM     18  H   LEU I   1     100.166 109.515 129.440  0.00  0.00    +0.000 HD
ATOM     19  H   LEU I   1     100.466 109.067 131.016  0.00  0.00    +0.000 HD
ATOM     20  H   ILE I   2      99.589 107.930 128.579  0.00  0.00    +0.000 HD
TER 
REMARK  Name = /data/user_data/xianyang/t3-aimnet-affinity-balanced/L4/Q9HB14/pocket.pdb
REMARK                            x       y       z     vdW  Elec       q    Type
REMARK                         _______ _______ _______ _____ _____    ______ ____
ATOM      1  N   GLN J   1      99.616 105.525 132.909  0.00  0.00    +0.000 N 
ATOM      2  CA  GLN J   1      98.585 105.392 133.936  0.00  0.00    +0.000 C 
ATOM      3  C   GLN J   1      97.531 104.371 133.522  0.00  0.00    +0.000 C 
ATOM      4  O   GLN J   1      97.148 103.494 134.309  0.00  0.00    +0.000 OA
ATOM      5  CB  GLN J   1      97.933 106.748 134.208  0.00  0.00    +0.000 C 
ATOM      6  CG  GLN J   1      98.719 107.652 135.138  0.00  0.00    +0.000 C 
ATOM      7  CD  GLN J   1      97.963 108.920 135.483  0.00  0.00    +0.000 C 
ATOM      8  OE1 GLN J   1      96.784 109.060 135.159  0.00  0.00    +0.000 OA
ATOM      9  NE2 GLN J   1      98.640 109.852 136.143  0.00  0.00    +0.000 N 
ATOM     10  N   SER J   2      97.054 104.470 132.279  0.00  0.00    +0.000 N 
ATOM     11  CA  SER J   2      96.039 103.540 131.796  0.00  0.00    +0.000 C 
ATOM     12  C   SER J   2      96.565 102.111 131.770  0.00  0.00    +0.000 C 
ATOM     13  O   SER J   2      95.828 101.165 132.067  0.00  0.00    +0.000 OA
ATOM     14  CB  SER J   2      95.561 103.960 130.407  0.00  0.00    +0.000 C 
ATOM     15  OG  SER J   2      95.227 102.829 129.624  0.00  0.00    +0.000 OA
ATOM     16  N   LEU J   3      97.836 101.936 131.401  0.00  0.00    +0.000 N 
ATOM     17  CA  LEU J   3      98.436 100.608 131.374  0.00  0.00    +0.000 C 
ATOM     18  C   LEU J   3      98.507 100.014 132.771  0.00  0.00    +0.000 C 
ATOM     19  O   LEU J   3      98.199  98.833 132.971  0.00  0.00    +0.000 OA
ATOM     20  CB  LEU J   3      99.829 100.680 130.751  0.00  0.00    +0.000 C 
ATOM     21  CG  LEU J   3     100.134  99.709 129.612  0.00  0.00    +0.000 C 
ATOM     22  CD1 LEU J   3      99.028  99.738 128.573  0.00  0.00    +0.000 C 
ATOM     23  CD2 LEU J   3     101.470 100.052 128.982  0.00  0.00    +0.000 C 
ATOM     24  H   GLN J   1     100.043 104.615 132.736  0.00  0.00    +0.000 HD
ATOM     25  H   GLN J   1     100.330 106.181 133.227  0.00  0.00    +0.000 HD
ATOM     26  H   GLN J   1      99.195 105.872 132.047  0.00  0.00    +0.000 HD
ATOM     27  H   GLN J   1      99.583 109.699 136.383  0.00  0.00    +0.000 HD
ATOM     28  H   GLN J   1      98.200 110.696 136.393  0.00  0.00    +0.000 HD
ATOM     29  H   SER J   2      97.390 105.177 131.683  0.00  0.00    +0.000 HD
ATOM     30  H   SER J   2      94.510 102.338 130.055  0.00  0.00    +0.000 HD
ATOM     31  H   LEU J   3      98.377 102.717 131.143  0.00  0.00    +0.000 HD
TER 
REMARK  Name = /data/user_data/xianyang/t3-aimnet-affinity-balanced/L4/Q9HB14/pocket.pdb
REMARK                            x       y       z     vdW  Elec       q    Type
REMARK                         _______ _______ _______ _____ _____    ______ ____
ATOM      1  N   TRP K   1      96.492 100.743 135.178  0.00  0.00    +0.000 N 
ATOM      2  CA  TRP K   1      95.119 100.433 135.567  0.00  0.00    +0.000 C 
ATOM      3  C   TRP K   1      94.650  99.119 134.950  0.00  0.00    +0.000 C 
ATOM      4  O   TRP K   1      94.046  98.283 135.631  0.00  0.00    +0.000 OA
ATOM      5  CB  TRP K   1      94.184 101.573 135.168  0.00  0.00    +0.000 C 
ATOM      6  CG  TRP K   1      92.744 101.273 135.454  0.00  0.00    +0.000 C 
ATOM      7  CD1 TRP K   1      92.072 101.517 136.616  0.00  0.00    +0.000 C 
ATOM      8  CD2 TRP K   1      91.801 100.661 134.567  0.00  0.00    +0.000 A 
ATOM      9  NE1 TRP K   1      90.768 101.100 136.505  0.00  0.00    +0.000 NA
ATOM     10  CE2 TRP K   1      90.576 100.570 135.256  0.00  0.00    +0.000 A 
ATOM     11  CE3 TRP K   1      91.873 100.182 133.255  0.00  0.00    +0.000 A 
ATOM     12  CZ2 TRP K   1      89.434 100.022 134.680  0.00  0.00    +0.000 A 
ATOM     13  CZ3 TRP K   1      90.737  99.638 132.685  0.00  0.00    +0.000 A 
ATOM     14  CH2 TRP K   1      89.535  99.563 133.396  0.00  0.00    +0.000 A 
ATOM     15  N   ILE K   2      94.912  98.921 133.655  0.00  0.00    +0.000 N 
ATOM     16  CA  ILE K   2      94.425  97.711 132.997  0.00  0.00    +0.000 C 
ATOM     17  C   ILE K   2      95.169  96.489 133.517  0.00  0.00    +0.000 C 
ATOM     18  O   ILE K   2      94.576  95.421 133.704  0.00  0.00    +0.000 OA
ATOM     19  CB  ILE K   2      94.528  97.825 131.464  0.00  0.00    +0.000 C 
ATOM     20  CG1 ILE K   2      94.329  96.456 130.813  0.00  0.00    +0.000 C 
ATOM     21  CG2 ILE K   2      95.875  98.344 131.048  0.00  0.00    +0.000 C 
ATOM     22  CD1 ILE K   2      94.317  96.496 129.303  0.00  0.00    +0.000 C 
ATOM     23  H   TRP K   1      97.104  99.974 135.450  0.00  0.00    +0.000 HD
ATOM     24  H   TRP K   1      96.793 101.599 135.645  0.00  0.00    +0.000 HD
ATOM     25  H   TRP K   1      96.538 100.873 134.167  0.00  0.00    +0.000 HD
ATOM     26  H   ILE K   2      95.430  99.587 133.147  0.00  0.00    +0.000 HD
TER 
