REMARK  Name = /data/user_data/xianyang/t3-aimnet-affinity-balanced/L3/P05622/pocket.pdb
REMARK                            x       y       z     vdW  Elec       q    Type
REMARK                         _______ _______ _______ _____ _____    ______ ____
ATOM      1  N   ARG A   1     -10.117  -8.069   9.321  0.00  0.00    +0.000 N 
ATOM      2  CA  ARG A   1      -8.664  -8.056   9.245  0.00  0.00    +0.000 C 
ATOM      3  C   ARG A   1      -8.128  -6.647   9.044  0.00  0.00    +0.000 C 
ATOM      4  O   ARG A   1      -8.803  -5.770   8.518  0.00  0.00    +0.000 OA
ATOM      5  CB  ARG A   1      -8.185  -8.967   8.113  0.00  0.00    +0.000 C 
ATOM      6  CG  ARG A   1      -8.644  -8.527   6.737  0.00  0.00    +0.000 C 
ATOM      7  CD  ARG A   1      -8.262  -9.553   5.689  0.00  0.00    +0.000 C 
ATOM      8  NE  ARG A   1      -8.711  -9.161   4.361  0.00  0.00    +0.000 N 
ATOM      9  CZ  ARG A   1      -7.979  -8.469   3.493  0.00  0.00    +0.000 C 
ATOM     10  NH2 ARG A   1      -6.742  -8.095   3.813  0.00  0.00    +0.000 N 
ATOM     11  NH1 ARG A   1      -8.480  -8.152   2.303  0.00  0.00    +0.000 N 
ATOM     12  N   THR A   2      -6.916  -6.459   9.479  0.00  0.00    +0.000 N 
ATOM     13  CA  THR A   2      -6.246  -5.179   9.347  0.00  0.00    +0.000 C 
ATOM     14  C   THR A   2      -5.733  -5.004   7.927  0.00  0.00    +0.000 C 
ATOM     15  O   THR A   2      -5.040  -5.866   7.391  0.00  0.00    +0.000 OA
ATOM     16  CB  THR A   2      -5.098  -5.063  10.344  0.00  0.00    +0.000 C 
ATOM     17  OG1 THR A   2      -5.610  -5.174  11.674  0.00  0.00    +0.000 OA
ATOM     18  CG2 THR A   2      -4.390  -3.722  10.200  0.00  0.00    +0.000 C 
ATOM     19  N   LEU A   3      -6.072  -3.862   7.313  0.00  0.00    +0.000 N 
ATOM     20  CA  LEU A   3      -5.587  -3.540   5.981  0.00  0.00    +0.000 C 
ATOM     21  C   LEU A   3      -4.232  -2.854   6.015  0.00  0.00    +0.000 C 
ATOM     22  O   LEU A   3      -3.416  -3.036   5.107  0.00  0.00    +0.000 OA
ATOM     23  CB  LEU A   3      -6.596  -2.654   5.248  0.00  0.00    +0.000 C 
ATOM     24  CG  LEU A   3      -7.989  -3.238   5.042  0.00  0.00    +0.000 C 
ATOM     25  CD2 LEU A   3      -8.910  -2.210   4.402  0.00  0.00    +0.000 C 
ATOM     26  CD1 LEU A   3      -7.912  -4.492   4.194  0.00  0.00    +0.000 C 
ATOM     27  N   GLY A   4      -3.991  -2.058   7.033  0.00  0.00    +0.000 N 
ATOM     28  CA  GLY A   4      -2.732  -1.362   7.183  0.00  0.00    +0.000 C 
ATOM     29  C   GLY A   4      -2.641  -0.709   8.537  0.00  0.00    +0.000 C 
ATOM     30  O   GLY A   4      -3.651  -0.463   9.191  0.00  0.00    +0.000 OA
ATOM     31  N   SER A   5      -1.417  -0.437   8.955  0.00  0.00    +0.000 N 
ATOM     32  CA  SER A   5      -1.174   0.165  10.250  0.00  0.00    +0.000 C 
ATOM     33  CB  SER A   5      -0.003   1.126  10.137  0.00  0.00    +0.000 C 
ATOM     34  OG  SER A   5       1.035   0.779   9.580  0.00  0.00    +0.000 OA
ATOM     35  C   SER A   5      -0.894  -0.889  11.314  0.00  0.00    +0.000 C 
ATOM     36  O   SER A   5      -0.699  -0.290  12.581  0.00  0.00    +0.000 OA
ATOM     37  H   ARG A   1     -10.442  -9.026   9.456  0.00  0.00    +0.000 HD
ATOM     38  H   ARG A   1     -10.506  -7.697   8.455  0.00  0.00    +0.000 HD
ATOM     39  H   ARG A   1     -10.422  -7.493  10.106  0.00  0.00    +0.000 HD
ATOM     40  H   ARG A   1      -9.619  -9.426   4.087  0.00  0.00    +0.000 HD
ATOM     41  H   ARG A   1      -6.201  -7.583   3.170  0.00  0.00    +0.000 HD
ATOM     42  H   ARG A   1      -6.369  -8.331   4.693  0.00  0.00    +0.000 HD
ATOM     43  H   ARG A   1      -7.937  -7.640   1.661  0.00  0.00    +0.000 HD
ATOM     44  H   ARG A   1      -9.394  -8.430   2.064  0.00  0.00    +0.000 HD
ATOM     45  H   THR A   2      -6.441  -7.206   9.910  0.00  0.00    +0.000 HD
ATOM     46  H   THR A   2      -6.241  -4.456  11.838  0.00  0.00    +0.000 HD
ATOM     47  H   LEU A   3      -6.664  -3.226   7.775  0.00  0.00    +0.000 HD
ATOM     48  H   GLY A   4      -4.690  -1.932   7.715  0.00  0.00    +0.000 HD
ATOM     49  H   SER A   5      -0.652  -0.649   8.372  0.00  0.00    +0.000 HD
ATOM     50  H   SER A   5       0.063   0.309  12.542  0.00  0.00    +0.000 HD
TER 
REMARK  Name = /data/user_data/xianyang/t3-aimnet-affinity-balanced/L3/P05622/pocket.pdb
REMARK                            x       y       z     vdW  Elec       q    Type
REMARK                         _______ _______ _______ _____ _____    ______ ____
ATOM      1  N   VAL B   1      -6.140   0.996   9.633  0.00  0.00    +0.000 N 
ATOM      2  CA  VAL B   1      -7.329   0.811   8.824  0.00  0.00    +0.000 C 
ATOM      3  C   VAL B   1      -7.630  -0.674   8.796  0.00  0.00    +0.000 C 
ATOM      4  O   VAL B   1      -6.749  -1.490   8.521  0.00  0.00    +0.000 OA
ATOM      5  CB  VAL B   1      -7.149   1.353   7.398  0.00  0.00    +0.000 C 
ATOM      6  CG1 VAL B   1      -8.375   1.065   6.555  0.00  0.00    +0.000 C 
ATOM      7  CG2 VAL B   1      -6.876   2.848   7.438  0.00  0.00    +0.000 C 
ATOM      8  H   VAL B   1      -5.907   1.988   9.674  0.00  0.00    +0.000 HD
ATOM      9  H   VAL B   1      -5.363   0.481   9.218  0.00  0.00    +0.000 HD
ATOM     10  H   VAL B   1      -6.313   0.648  10.576  0.00  0.00    +0.000 HD
TER 
REMARK  Name = /data/user_data/xianyang/t3-aimnet-affinity-balanced/L3/P05622/pocket.pdb
REMARK                            x       y       z     vdW  Elec       q    Type
REMARK                         _______ _______ _______ _____ _____    ______ ____
ATOM      1  N   ALA C   1     -14.170   0.173   4.933  0.00  0.00    +0.000 N 
ATOM      2  CA  ALA C   1     -12.902   0.359   5.616  0.00  0.00    +0.000 C 
ATOM      3  C   ALA C   1     -13.134   1.247   6.827  0.00  0.00    +0.000 C 
ATOM      4  O   ALA C   1     -13.863   2.237   6.747  0.00  0.00    +0.000 OA
ATOM      5  CB  ALA C   1     -11.862   0.979   4.690  0.00  0.00    +0.000 C 
ATOM      6  H   ALA C   1     -14.032  -0.422   4.116  0.00  0.00    +0.000 HD
ATOM      7  H   ALA C   1     -14.533   1.079   4.636  0.00  0.00    +0.000 HD
ATOM      8  H   ALA C   1     -14.836  -0.269   5.567  0.00  0.00    +0.000 HD
TER 
REMARK  Name = /data/user_data/xianyang/t3-aimnet-affinity-balanced/L3/P05622/pocket.pdb
REMARK                            x       y       z     vdW  Elec       q    Type
REMARK                         _______ _______ _______ _____ _____    ______ ____
ATOM      1  N   LYS D   1     -11.275   3.516   9.641  0.00  0.00    +0.000 N 
ATOM      2  CA  LYS D   1     -10.065   4.227  10.026  0.00  0.00    +0.000 C 
ATOM      3  C   LYS D   1     -10.156   4.584  11.496  0.00  0.00    +0.000 C 
ATOM      4  O   LYS D   1     -11.127   5.207  11.932  0.00  0.00    +0.000 OA
ATOM      5  CB  LYS D   1      -9.893   5.476   9.170  0.00  0.00    +0.000 C 
ATOM      6  CG  LYS D   1      -8.540   6.151   9.283  0.00  0.00    +0.000 C 
ATOM      7  CD  LYS D   1      -8.417   7.266   8.248  0.00  0.00    +0.000 C 
ATOM      8  CE  LYS D   1      -7.030   7.868   8.217  0.00  0.00    +0.000 C 
ATOM      9  NZ  LYS D   1      -6.903   8.926   7.180  0.00  0.00    +0.000 N 
ATOM     10  H   LYS D   1     -11.225   3.270   8.652  0.00  0.00    +0.000 HD
ATOM     11  H   LYS D   1     -12.086   4.113   9.802  0.00  0.00    +0.000 HD
ATOM     12  H   LYS D   1     -11.362   2.666  10.199  0.00  0.00    +0.000 HD
ATOM     13  H   LYS D   1      -7.555   9.683   7.385  0.00  0.00    +0.000 HD
ATOM     14  H   LYS D   1      -7.117   8.532   6.264  0.00  0.00    +0.000 HD
ATOM     15  H   LYS D   1      -5.950   9.289   7.179  0.00  0.00    +0.000 HD
TER 
REMARK  Name = /data/user_data/xianyang/t3-aimnet-affinity-balanced/L3/P05622/pocket.pdb
REMARK                            x       y       z     vdW  Elec       q    Type
REMARK                         _______ _______ _______ _____ _____    ______ ____
ATOM      1  N   MET E   1     -14.324  15.426   6.099  0.00  0.00    +0.000 N 
ATOM      2  CA  MET E   1     -14.943  14.504   5.156  0.00  0.00    +0.000 C 
ATOM      3  C   MET E   1     -16.444  14.728   5.061  0.00  0.00    +0.000 C 
ATOM      4  O   MET E   1     -17.015  14.672   3.963  0.00  0.00    +0.000 OA
ATOM      5  CB  MET E   1     -14.640  13.058   5.549  0.00  0.00    +0.000 C 
ATOM      6  CG  MET E   1     -13.163  12.710   5.487  0.00  0.00    +0.000 C 
ATOM      7  SD  MET E   1     -12.819  11.018   6.008  0.00  0.00    +0.000 S 
ATOM      8  CE  MET E   1     -13.545  10.114   4.639  0.00  0.00    +0.000 C 
ATOM      9  H   MET E   1     -14.535  16.385   5.824  0.00  0.00    +0.000 HD
ATOM     10  H   MET E   1     -13.314  15.286   6.098  0.00  0.00    +0.000 HD
ATOM     11  H   MET E   1     -14.690  15.252   7.035  0.00  0.00    +0.000 HD
TER 
REMARK  Name = /data/user_data/xianyang/t3-aimnet-affinity-balanced/L3/P05622/pocket.pdb
REMARK                            x       y       z     vdW  Elec       q    Type
REMARK                         _______ _______ _______ _____ _____    ______ ____
ATOM      1  N   VAL F   1     -12.506   9.161  -1.821  0.00  0.00    +0.000 N 
ATOM      2  CA  VAL F   1     -12.951   8.135  -0.889  0.00  0.00    +0.000 C 
ATOM      3  C   VAL F   1     -14.019   8.749   0.005  0.00  0.00    +0.000 C 
ATOM      4  O   VAL F   1     -13.755   9.681   0.766  0.00  0.00    +0.000 OA
ATOM      5  CB  VAL F   1     -11.786   7.578  -0.053  0.00  0.00    +0.000 C 
ATOM      6  CG2 VAL F   1     -12.307   6.619   1.004  0.00  0.00    +0.000 C 
ATOM      7  CG1 VAL F   1     -10.788   6.876  -0.961  0.00  0.00    +0.000 C 
ATOM      8  H   VAL F   1     -11.788   8.775  -2.434  0.00  0.00    +0.000 HD
ATOM      9  H   VAL F   1     -12.121   9.949  -1.301  0.00  0.00    +0.000 HD
ATOM     10  H   VAL F   1     -13.297   9.477  -2.382  0.00  0.00    +0.000 HD
TER 
REMARK  Name = /data/user_data/xianyang/t3-aimnet-affinity-balanced/L3/P05622/pocket.pdb
REMARK                            x       y       z     vdW  Elec       q    Type
REMARK                         _______ _______ _______ _____ _____    ______ ____
ATOM      1  N   THR G   1     -15.401   4.394   5.772  0.00  0.00    +0.000 N 
ATOM      2  CA  THR G   1     -15.269   4.884   4.407  0.00  0.00    +0.000 C 
ATOM      3  C   THR G   1     -15.434   3.738   3.427  0.00  0.00    +0.000 C 
ATOM      4  O   THR G   1     -15.617   2.576   3.807  0.00  0.00    +0.000 OA
ATOM      5  CB  THR G   1     -13.910   5.564   4.175  0.00  0.00    +0.000 C 
ATOM      6  OG1 THR G   1     -12.868   4.603   4.326  0.00  0.00    +0.000 OA
ATOM      7  CG2 THR G   1     -13.699   6.702   5.156  0.00  0.00    +0.000 C 
ATOM      8  N   GLU G   2     -15.376   4.092   2.161  0.00  0.00    +0.000 N 
ATOM      9  CA  GLU G   2     -15.463   3.090   1.113  0.00  0.00    +0.000 C 
ATOM     10  C   GLU G   2     -14.273   2.144   1.166  0.00  0.00    +0.000 C 
ATOM     11  O   GLU G   2     -13.180   2.502   1.614  0.00  0.00    +0.000 OA
ATOM     12  CB  GLU G   2     -15.517   3.753  -0.264  0.00  0.00    +0.000 C 
ATOM     13  CG  GLU G   2     -16.696   4.679  -0.472  0.00  0.00    +0.000 C 
ATOM     14  CD  GLU G   2     -16.684   5.281  -1.857  0.00  0.00    +0.000 C 
ATOM     15  OE1 GLU G   2     -16.891   4.524  -2.828  0.00  0.00    +0.000 OA
ATOM     16  OE2 GLU G   2     -16.461   6.492  -1.979  0.00  0.00    +0.000 OA
ATOM     17  N   TYR G   3     -14.505   0.935   0.680  0.00  0.00    +0.000 N 
ATOM     18  CA  TYR G   3     -13.464  -0.075   0.565  0.00  0.00    +0.000 C 
ATOM     19  C   TYR G   3     -13.120  -0.259  -0.902  0.00  0.00    +0.000 C 
ATOM     20  O   TYR G   3     -13.990  -0.558  -1.720  0.00  0.00    +0.000 OA
ATOM     21  CB  TYR G   3     -13.924  -1.388   1.190  0.00  0.00    +0.000 C 
ATOM     22  CG  TYR G   3     -12.987  -2.544   0.961  0.00  0.00    +0.000 A 
ATOM     23  CD2 TYR G   3     -11.792  -2.640   1.663  0.00  0.00    +0.000 A 
ATOM     24  CD1 TYR G   3     -13.304  -3.542   0.050  0.00  0.00    +0.000 A 
ATOM     25  CE2 TYR G   3     -10.926  -3.707   1.454  0.00  0.00    +0.000 A 
ATOM     26  CE1 TYR G   3     -12.442  -4.611  -0.160  0.00  0.00    +0.000 A 
ATOM     27  CZ  TYR G   3     -11.258  -4.690   0.544  0.00  0.00    +0.000 A 
ATOM     28  OH  TYR G   3     -10.413  -5.739   0.338  0.00  0.00    +0.000 OA
ATOM     29  N   CYS G   4     -11.857  -0.062  -1.226  0.00  0.00    +0.000 N 
ATOM     30  CA  CYS G   4     -11.373  -0.222  -2.589  0.00  0.00    +0.000 C 
ATOM     31  C   CYS G   4     -10.493  -1.457  -2.644  0.00  0.00    +0.000 C 
ATOM     32  O   CYS G   4      -9.352  -1.449  -2.182  0.00  0.00    +0.000 OA
ATOM     33  CB  CYS G   4     -10.616   1.021  -3.048  0.00  0.00    +0.000 C 
ATOM     34  SG  CYS G   4     -11.629   2.520  -3.068  0.00  0.00    +0.000 S 
ATOM     35  N   ARG G   5     -11.016  -2.506  -3.226  0.00  0.00    +0.000 N 
ATOM     36  CA  ARG G   5     -10.407  -3.823  -3.118  0.00  0.00    +0.000 C 
ATOM     37  C   ARG G   5      -9.130  -3.976  -3.916  0.00  0.00    +0.000 C 
ATOM     38  O   ARG G   5      -8.358  -4.902  -3.662  0.00  0.00    +0.000 OA
ATOM     39  CB  ARG G   5     -11.406  -4.898  -3.540  0.00  0.00    +0.000 C 
ATOM     40  CG  ARG G   5     -11.848  -4.805  -4.991  0.00  0.00    +0.000 C 
ATOM     41  CD  ARG G   5     -12.887  -5.867  -5.301  0.00  0.00    +0.000 C 
ATOM     42  NE  ARG G   5     -13.340  -5.815  -6.688  0.00  0.00    +0.000 N 
ATOM     43  CZ  ARG G   5     -14.254  -6.621  -7.213  0.00  0.00    +0.000 C 
ATOM     44  NH2 ARG G   5     -14.821  -7.553  -6.456  0.00  0.00    +0.000 N 
ATOM     45  NH1 ARG G   5     -14.601  -6.497  -8.484  0.00  0.00    +0.000 N 
ATOM     46  N   TYR G   6      -8.884  -3.100  -4.885  0.00  0.00    +0.000 N 
ATOM     47  CA  TYR G   6      -7.694  -3.231  -5.717  0.00  0.00    +0.000 C 
ATOM     48  C   TYR G   6      -6.495  -2.471  -5.177  0.00  0.00    +0.000 C 
ATOM     49  O   TYR G   6      -5.430  -2.490  -5.794  0.00  0.00    +0.000 OA
ATOM     50  CB  TYR G   6      -7.994  -2.788  -7.149  0.00  0.00    +0.000 C 
ATOM     51  CG  TYR G   6      -9.025  -3.644  -7.843  0.00  0.00    +0.000 A 
ATOM     52  CD1 TYR G   6      -8.738  -4.961  -8.183  0.00  0.00    +0.000 A 
ATOM     53  CD2 TYR G   6     -10.282  -3.144  -8.152  0.00  0.00    +0.000 A 
ATOM     54  CE1 TYR G   6      -9.678  -5.758  -8.817  0.00  0.00    +0.000 A 
ATOM     55  CE2 TYR G   6     -11.230  -3.934  -8.787  0.00  0.00    +0.000 A 
ATOM     56  CZ  TYR G   6     -10.922  -5.241  -9.118  0.00  0.00    +0.000 A 
ATOM     57  OH  TYR G   6     -11.855  -6.028  -9.747  0.00  0.00    +0.000 OA
ATOM     58  N   GLY G   7      -6.636  -1.806  -4.041  0.00  0.00    +0.000 N 
ATOM     59  CA  GLY G   7      -5.504  -1.179  -3.394  0.00  0.00    +0.000 C 
ATOM     60  C   GLY G   7      -5.111   0.140  -4.018  0.00  0.00    +0.000 C 
ATOM     61  O   GLY G   7      -5.857   0.752  -4.787  0.00  0.00    +0.000 OA
ATOM     62  N   ASP G   8      -3.914   0.576  -3.674  0.00  0.00    +0.000 N 
ATOM     63  CA  ASP G   8      -3.436   1.865  -4.125  0.00  0.00    +0.000 C 
ATOM     64  C   ASP G   8      -2.955   1.808  -5.568  0.00  0.00    +0.000 C 
ATOM     65  O   ASP G   8      -2.639   0.748  -6.101  0.00  0.00    +0.000 OA
ATOM     66  CB  ASP G   8      -2.328   2.380  -3.207  0.00  0.00    +0.000 C 
ATOM     67  CG  ASP G   8      -1.125   1.469  -3.201  0.00  0.00    +0.000 C 
ATOM     68  OD2 ASP G   8      -1.168   0.450  -2.497  0.00  0.00    +0.000 OA
ATOM     69  OD1 ASP G   8      -0.132   1.786  -3.899  0.00  0.00    +0.000 OA
ATOM     70  H   THR G   1     -16.312   3.951   5.887  0.00  0.00    +0.000 HD
ATOM     71  H   THR G   1     -15.318   5.175   6.423  0.00  0.00    +0.000 HD
ATOM     72  H   THR G   1     -14.665   3.713   5.962  0.00  0.00    +0.000 HD
ATOM     73  H   THR G   1     -12.888   4.243   5.227  0.00  0.00    +0.000 HD
ATOM     74  H   GLU G   2     -15.273   5.042   1.923  0.00  0.00    +0.000 HD
ATOM     75  H   TYR G   3     -15.417   0.710   0.385  0.00  0.00    +0.000 HD
ATOM     76  H   TYR G   3     -10.637  -6.407  -0.280  0.00  0.00    +0.000 HD
ATOM     77  H   CYS G   4     -11.221   0.202  -0.523  0.00  0.00    +0.000 HD
ATOM     78  H   CYS G   4     -12.058   2.794  -1.807  0.00  0.00    +0.000 HD
ATOM     79  H   ARG G   5     -11.843  -2.401  -3.750  0.00  0.00    +0.000 HD
ATOM     80  H   ARG G   5     -12.939  -5.134  -7.275  0.00  0.00    +0.000 HD
ATOM     81  H   ARG G   5     -15.500  -8.154  -6.840  0.00  0.00    +0.000 HD
ATOM     82  H   ARG G   5     -14.563  -7.643  -5.510  0.00  0.00    +0.000 HD
ATOM     83  H   ARG G   5     -14.180  -5.806  -9.044  0.00  0.00    +0.000 HD
ATOM     84  H   ARG G   5     -15.280  -7.096  -8.869  0.00  0.00    +0.000 HD
ATOM     85  H   TYR G   6      -9.510  -2.357  -5.042  0.00  0.00    +0.000 HD
ATOM     86  H   TYR G   6     -11.646  -6.914  -9.971  0.00  0.00    +0.000 HD
ATOM     87  H   GLY G   7      -7.527  -1.737  -3.629  0.00  0.00    +0.000 HD
ATOM     88  H   ASP G   8      -3.339   0.017  -3.103  0.00  0.00    +0.000 HD
TER 
REMARK  Name = /data/user_data/xianyang/t3-aimnet-affinity-balanced/L3/P05622/pocket.pdb
REMARK                            x       y       z     vdW  Elec       q    Type
REMARK                         _______ _______ _______ _____ _____    ______ ____
ATOM      1  N   VAL H   1      -0.199   2.873  -7.018  0.00  0.00    +0.000 N 
ATOM      2  CA  VAL H   1       1.177   2.457  -7.263  0.00  0.00    +0.000 C 
ATOM      3  C   VAL H   1       1.255   0.940  -7.390  0.00  0.00    +0.000 C 
ATOM      4  O   VAL H   1       1.805   0.411  -8.359  0.00  0.00    +0.000 OA
ATOM      5  CB  VAL H   1       2.113   2.959  -6.142  0.00  0.00    +0.000 C 
ATOM      6  CG1 VAL H   1       3.484   2.305  -6.271  0.00  0.00    +0.000 C 
ATOM      7  CG2 VAL H   1       2.237   4.465  -6.196  0.00  0.00    +0.000 C 
ATOM      8  N   ASP H   2       0.704   0.235  -6.421  0.00  0.00    +0.000 N 
ATOM      9  CA  ASP H   2       0.742  -1.221  -6.465  0.00  0.00    +0.000 C 
ATOM     10  C   ASP H   2      -0.100  -1.757  -7.617  0.00  0.00    +0.000 C 
ATOM     11  O   ASP H   2       0.252  -2.768  -8.226  0.00  0.00    +0.000 OA
ATOM     12  CB  ASP H   2       0.265  -1.808  -5.134  0.00  0.00    +0.000 C 
ATOM     13  CG  ASP H   2       0.451  -3.303  -5.060  0.00  0.00    +0.000 C 
ATOM     14  OD2 ASP H   2       1.608  -3.756  -4.976  0.00  0.00    +0.000 OA
ATOM     15  OD1 ASP H   2      -0.566  -4.028  -5.084  0.00  0.00    +0.000 OA
ATOM     16  H   VAL H   1      -0.797   2.530  -7.770  0.00  0.00    +0.000 HD
ATOM     17  H   VAL H   1      -0.245   3.891  -6.984  0.00  0.00    +0.000 HD
ATOM     18  H   VAL H   1      -0.517   2.488  -6.129  0.00  0.00    +0.000 HD
ATOM     19  H   ASP H   2       0.267   0.693  -5.667  0.00  0.00    +0.000 HD
TER 
REMARK  Name = /data/user_data/xianyang/t3-aimnet-affinity-balanced/L3/P05622/pocket.pdb
REMARK                            x       y       z     vdW  Elec       q    Type
REMARK                         _______ _______ _______ _____ _____    ______ ____
ATOM      1  N   SER I   1     -10.841  -9.667  -2.530  0.00  0.00    +0.000 N 
ATOM      2  CA  SER I   1      -9.949 -10.181  -1.511  0.00  0.00    +0.000 C 
ATOM      3  CB  SER I   1     -10.428 -11.544  -1.034  0.00  0.00    +0.000 C 
ATOM      4  OG  SER I   1     -11.623 -11.802  -0.950  0.00  0.00    +0.000 OA
ATOM      5  C   SER I   1      -9.857  -9.216  -0.331  0.00  0.00    +0.000 C 
ATOM      6  O   SER I   1      -9.341  -7.968  -0.728  0.00  0.00    +0.000 OA
ATOM      7  H   SER I   1     -10.886 -10.327  -3.306  0.00  0.00    +0.000 HD
ATOM      8  H   SER I   1     -10.492  -8.770  -2.866  0.00  0.00    +0.000 HD
ATOM      9  H   SER I   1     -11.773  -9.542  -2.135  0.00  0.00    +0.000 HD
ATOM     10  H   SER I   1      -8.447  -8.086  -1.084  0.00  0.00    +0.000 HD
TER 
REMARK  Name = /data/user_data/xianyang/t3-aimnet-affinity-balanced/L3/P05622/pocket.pdb
REMARK                            x       y       z     vdW  Elec       q    Type
REMARK                         _______ _______ _______ _____ _____    ______ ____
ATOM      1  N   ALA J   1       2.291 -11.953   0.678  0.00  0.00    +0.000 N 
ATOM      2  CA  ALA J   1       2.448 -10.629   0.107  0.00  0.00    +0.000 C 
ATOM      3  C   ALA J   1       1.077 -10.007  -0.120  0.00  0.00    +0.000 C 
ATOM      4  O   ALA J   1       0.065 -10.707  -0.128  0.00  0.00    +0.000 OA
ATOM      5  CB  ALA J   1       3.236 -10.703  -1.203  0.00  0.00    +0.000 C 
ATOM      6  N   PRO J   2       1.030  -8.694  -0.305  0.00  0.00    +0.000 N 
ATOM      7  CA  PRO J   2      -0.277  -8.054  -0.502  0.00  0.00    +0.000 C 
ATOM      8  C   PRO J   2      -1.079  -8.637  -1.655  0.00  0.00    +0.000 C 
ATOM      9  O   PRO J   2      -2.302  -8.781  -1.543  0.00  0.00    +0.000 OA
ATOM     10  CB  PRO J   2       0.094  -6.589  -0.762  0.00  0.00    +0.000 C 
ATOM     11  CG  PRO J   2       1.385  -6.403  -0.046  0.00  0.00    +0.000 C 
ATOM     12  CD  PRO J   2       2.113  -7.708  -0.182  0.00  0.00    +0.000 C 
ATOM     13  H   ALA J   1       3.210 -12.369   0.830  0.00  0.00    +0.000 HD
ATOM     14  H   ALA J   1       1.755 -12.538   0.037  0.00  0.00    +0.000 HD
ATOM     15  H   ALA J   1       1.798 -11.883   1.568  0.00  0.00    +0.000 HD
TER 
REMARK  Name = /data/user_data/xianyang/t3-aimnet-affinity-balanced/L3/P05622/pocket.pdb
REMARK                            x       y       z     vdW  Elec       q    Type
REMARK                         _______ _______ _______ _____ _____    ______ ____
ATOM      1  N   ASN K   1      -3.531 -11.725  -1.216  0.00  0.00    +0.000 N 
ATOM      2  CA  ASN K   1      -4.816 -11.595  -0.555  0.00  0.00    +0.000 C 
ATOM      3  C   ASN K   1      -5.978 -11.424  -1.522  0.00  0.00    +0.000 C 
ATOM      4  O   ASN K   1      -7.110 -11.214  -1.078  0.00  0.00    +0.000 OA
ATOM      5  CB  ASN K   1      -4.795 -10.419   0.428  0.00  0.00    +0.000 C 
ATOM      6  CG  ASN K   1      -3.878 -10.672   1.602  0.00  0.00    +0.000 C 
ATOM      7  OD1 ASN K   1      -4.274 -11.268   2.593  0.00  0.00    +0.000 OA
ATOM      8  ND2 ASN K   1      -2.638 -10.215   1.490  0.00  0.00    +0.000 N 
ATOM      9  N   TYR K   2      -5.683 -11.535  -2.820  0.00  0.00    +0.000 N 
ATOM     10  CA  TYR K   2      -6.728 -11.441  -3.819  0.00  0.00    +0.000 C 
ATOM     11  C   TYR K   2      -7.028 -12.812  -4.392  0.00  0.00    +0.000 C 
ATOM     12  O   TYR K   2      -6.140 -13.648  -4.532  0.00  0.00    +0.000 OA
ATOM     13  CB  TYR K   2      -6.321 -10.485  -4.943  0.00  0.00    +0.000 C 
ATOM     14  CG  TYR K   2      -6.158  -9.055  -4.495  0.00  0.00    +0.000 A 
ATOM     15  CD1 TYR K   2      -7.261  -8.216  -4.389  0.00  0.00    +0.000 A 
ATOM     16  CD2 TYR K   2      -4.902  -8.553  -4.186  0.00  0.00    +0.000 A 
ATOM     17  CE1 TYR K   2      -7.118  -6.900  -3.983  0.00  0.00    +0.000 A 
ATOM     18  CE2 TYR K   2      -4.750  -7.232  -3.773  0.00  0.00    +0.000 A 
ATOM     19  CZ  TYR K   2      -5.862  -6.407  -3.675  0.00  0.00    +0.000 A 
ATOM     20  OH  TYR K   2      -5.715  -5.113  -3.270  0.00  0.00    +0.000 OA
ATOM     21  H   ASN K   1      -3.561 -12.511  -1.866  0.00  0.00    +0.000 HD
ATOM     22  H   ASN K   1      -2.805 -11.888  -0.519  0.00  0.00    +0.000 HD
ATOM     23  H   ASN K   1      -3.324 -10.868  -1.728  0.00  0.00    +0.000 HD
ATOM     24  H   ASN K   1      -2.360  -9.740   0.674  0.00  0.00    +0.000 HD
ATOM     25  H   ASN K   1      -1.995 -10.351   2.223  0.00  0.00    +0.000 HD
ATOM     26  H   TYR K   2      -4.750 -11.681  -3.099  0.00  0.00    +0.000 HD
ATOM     27  H   TYR K   2      -6.465  -4.555  -3.203  0.00  0.00    +0.000 HD
TER 
REMARK  Name = /data/user_data/xianyang/t3-aimnet-affinity-balanced/L3/P05622/pocket.pdb
REMARK                            x       y       z     vdW  Elec       q    Type
REMARK                         _______ _______ _______ _____ _____    ______ ____
ATOM      1  N   ARG L   1       0.343   6.801  -4.322  0.00  0.00    +0.000 N 
ATOM      2  CA  ARG L   1       0.148   5.969  -3.136  0.00  0.00    +0.000 C 
ATOM      3  C   ARG L   1      -1.106   6.358  -2.364  0.00  0.00    +0.000 C 
ATOM      4  O   ARG L   1      -1.596   5.571  -1.557  0.00  0.00    +0.000 OA
ATOM      5  CB  ARG L   1       1.369   6.063  -2.222  0.00  0.00    +0.000 C 
ATOM      6  CG  ARG L   1       1.646   7.476  -1.737  0.00  0.00    +0.000 C 
ATOM      7  CD  ARG L   1       2.870   7.548  -0.841  0.00  0.00    +0.000 C 
ATOM      8  NE  ARG L   1       3.144   8.926  -0.442  0.00  0.00    +0.000 N 
ATOM      9  CZ  ARG L   1       3.955   9.750  -1.096  0.00  0.00    +0.000 C 
ATOM     10  NH1 ARG L   1       4.597   9.327  -2.189  0.00  0.00    +0.000 N 
ATOM     11  NH2 ARG L   1       4.122  10.988  -0.670  0.00  0.00    +0.000 N 
ATOM     12  H   ARG L   1      -0.477   6.731  -4.925  0.00  0.00    +0.000 HD
ATOM     13  H   ARG L   1       1.167   6.480  -4.830  0.00  0.00    +0.000 HD
ATOM     14  H   ARG L   1       0.475   7.772  -4.038  0.00  0.00    +0.000 HD
ATOM     15  H   ARG L   1       2.697   9.267   0.366  0.00  0.00    +0.000 HD
ATOM     16  H   ARG L   1       5.198   9.937  -2.674  0.00  0.00    +0.000 HD
ATOM     17  H   ARG L   1       4.469   8.405  -2.509  0.00  0.00    +0.000 HD
ATOM     18  H   ARG L   1       4.723  11.599  -1.155  0.00  0.00    +0.000 HD
ATOM     19  H   ARG L   1       3.645  11.301   0.133  0.00  0.00    +0.000 HD
TER 
REMARK  Name = /data/user_data/xianyang/t3-aimnet-affinity-balanced/L3/P05622/pocket.pdb
REMARK                            x       y       z     vdW  Elec       q    Type
REMARK                         _______ _______ _______ _____ _____    ______ ____
ATOM      1  N   LEU M   1      -6.665   5.252  -4.589  0.00  0.00    +0.000 N 
ATOM      2  CA  LEU M   1      -7.124   3.875  -4.523  0.00  0.00    +0.000 C 
ATOM      3  C   LEU M   1      -7.867   3.494  -5.790  0.00  0.00    +0.000 C 
ATOM      4  O   LEU M   1      -8.457   4.342  -6.464  0.00  0.00    +0.000 OA
ATOM      5  CB  LEU M   1      -8.028   3.665  -3.309  0.00  0.00    +0.000 C 
ATOM      6  CG  LEU M   1      -7.388   3.899  -1.946  0.00  0.00    +0.000 C 
ATOM      7  CD2 LEU M   1      -8.424   3.754  -0.841  0.00  0.00    +0.000 C 
ATOM      8  CD1 LEU M   1      -6.237   2.935  -1.725  0.00  0.00    +0.000 C 
ATOM      9  H   LEU M   1      -6.064   5.371  -5.405  0.00  0.00    +0.000 HD
ATOM     10  H   LEU M   1      -6.140   5.476  -3.744  0.00  0.00    +0.000 HD
ATOM     11  H   LEU M   1      -7.469   5.875  -4.665  0.00  0.00    +0.000 HD
TER 
REMARK  Name = /data/user_data/xianyang/t3-aimnet-affinity-balanced/L3/P05622/pocket.pdb
REMARK                            x       y       z     vdW  Elec       q    Type
REMARK                         _______ _______ _______ _____ _____    ______ ____
ATOM      1  N   CYS N   1      -7.513   9.570  -1.504  0.00  0.00    +0.000 N 
ATOM      2  CA  CYS N   1      -7.592   9.311  -0.076  0.00  0.00    +0.000 C 
ATOM      3  C   CYS N   1      -6.345   9.859   0.602  0.00  0.00    +0.000 C 
ATOM      4  O   CYS N   1      -5.527  10.542  -0.013  0.00  0.00    +0.000 OA
ATOM      5  CB  CYS N   1      -7.745   7.806   0.199  0.00  0.00    +0.000 C 
ATOM      6  SG  CYS N   1      -6.288   6.834  -0.245  0.00  0.00    +0.000 S 
ATOM      7  N   ASP N   2      -6.211   9.559   1.881  0.00  0.00    +0.000 N 
ATOM      8  CA  ASP N   2      -5.059   9.970   2.670  0.00  0.00    +0.000 C 
ATOM      9  C   ASP N   2      -4.766   8.874   3.680  0.00  0.00    +0.000 C 
ATOM     10  O   ASP N   2      -5.580   8.613   4.563  0.00  0.00    +0.000 OA
ATOM     11  CB  ASP N   2      -5.318  11.305   3.370  0.00  0.00    +0.000 C 
ATOM     12  CG  ASP N   2      -4.075  11.846   4.051  0.00  0.00    +0.000 C 
ATOM     13  OD1 ASP N   2      -3.011  11.200   3.996  0.00  0.00    +0.000 OA
ATOM     14  OD2 ASP N   2      -4.167  12.942   4.650  0.00  0.00    +0.000 OA
ATOM     15  N   PHE N   3      -3.605   8.247   3.547  0.00  0.00    +0.000 N 
ATOM     16  CA  PHE N   3      -3.195   7.142   4.409  0.00  0.00    +0.000 C 
ATOM     17  C   PHE N   3      -2.382   7.609   5.603  0.00  0.00    +0.000 C 
ATOM     18  O   PHE N   3      -1.571   6.849   6.138  0.00  0.00    +0.000 OA
ATOM     19  CB  PHE N   3      -2.388   6.117   3.609  0.00  0.00    +0.000 C 
ATOM     20  CG  PHE N   3      -3.183   5.392   2.567  0.00  0.00    +0.000 A 
ATOM     21  CD1 PHE N   3      -3.324   5.915   1.296  0.00  0.00    +0.000 A 
ATOM     22  CD2 PHE N   3      -3.775   4.177   2.853  0.00  0.00    +0.000 A 
ATOM     23  CE1 PHE N   3      -4.049   5.247   0.328  0.00  0.00    +0.000 A 
ATOM     24  CE2 PHE N   3      -4.502   3.499   1.890  0.00  0.00    +0.000 A 
ATOM     25  CZ  PHE N   3      -4.641   4.033   0.625  0.00  0.00    +0.000 A 
ATOM     26  H   CYS N   1      -8.347   9.204  -1.963  0.00  0.00    +0.000 HD
ATOM     27  H   CYS N   1      -6.686   9.112  -1.887  0.00  0.00    +0.000 HD
ATOM     28  H   CYS N   1      -7.450  10.575  -1.664  0.00  0.00    +0.000 HD
ATOM     29  H   CYS N   1      -5.228   7.238   0.505  0.00  0.00    +0.000 HD
ATOM     30  H   ASP N   2      -6.920   9.035   2.319  0.00  0.00    +0.000 HD
ATOM     31  H   PHE N   3      -2.992   8.540   2.835  0.00  0.00    +0.000 HD
TER 
REMARK  Name = /data/user_data/xianyang/t3-aimnet-affinity-balanced/L3/P05622/pocket.pdb
REMARK                            x       y       z     vdW  Elec       q    Type
REMARK                         _______ _______ _______ _____ _____    ______ ____
ATOM      1  N   ALA O   1      -2.608   5.272   8.529  0.00  0.00    +0.000 N 
ATOM      2  CA  ALA O   1      -2.411   3.859   8.228  0.00  0.00    +0.000 C 
ATOM      3  C   ALA O   1      -1.242   3.648   7.282  0.00  0.00    +0.000 C 
ATOM      4  O   ALA O   1      -1.310   2.817   6.371  0.00  0.00    +0.000 OA
ATOM      5  CB  ALA O   1      -3.685   3.258   7.641  0.00  0.00    +0.000 C 
ATOM      6  N   ARG O   2      -0.171   4.373   7.479  0.00  0.00    +0.000 N 
ATOM      7  CA  ARG O   2       0.999   4.265   6.627  0.00  0.00    +0.000 C 
ATOM      8  C   ARG O   2       2.259   4.362   7.480  0.00  0.00    +0.000 C 
ATOM      9  O   ARG O   2       2.370   5.231   8.347  0.00  0.00    +0.000 OA
ATOM     10  CB  ARG O   2       1.008   5.356   5.553  0.00  0.00    +0.000 C 
ATOM     11  CG  ARG O   2       2.211   5.295   4.633  0.00  0.00    +0.000 C 
ATOM     12  CD  ARG O   2       2.231   6.449   3.638  0.00  0.00    +0.000 C 
ATOM     13  NE  ARG O   2       1.004   6.498   2.848  0.00  0.00    +0.000 N 
ATOM     14  CZ  ARG O   2       0.786   5.779   1.756  0.00  0.00    +0.000 C 
ATOM     15  NH2 ARG O   2       1.700   4.942   1.307  0.00  0.00    +0.000 N 
ATOM     16  NH1 ARG O   2      -0.356   5.908   1.104  0.00  0.00    +0.000 N 
ATOM     17  N   ASP O   3       3.185   3.466   7.222  0.00  0.00    +0.000 N 
ATOM     18  CA  ASP O   3       4.489   3.519   7.869  0.00  0.00    +0.000 C 
ATOM     19  C   ASP O   3       5.389   4.436   7.052  0.00  0.00    +0.000 C 
ATOM     20  O   ASP O   3       6.188   3.982   6.230  0.00  0.00    +0.000 OA
ATOM     21  CB  ASP O   3       5.088   2.120   7.995  0.00  0.00    +0.000 C 
ATOM     22  CG  ASP O   3       6.344   2.099   8.852  0.00  0.00    +0.000 C 
ATOM     23  OD2 ASP O   3       6.781   3.171   9.315  0.00  0.00    +0.000 OA
ATOM     24  OD1 ASP O   3       6.895   0.997   9.061  0.00  0.00    +0.000 OA
ATOM     25  H   ALA O   1      -1.749   5.659   8.920  0.00  0.00    +0.000 HD
ATOM     26  H   ALA O   1      -3.365   5.373   9.205  0.00  0.00    +0.000 HD
ATOM     27  H   ALA O   1      -2.847   5.772   7.673  0.00  0.00    +0.000 HD
ATOM     28  H   ARG O   2      -0.158   5.012   8.228  0.00  0.00    +0.000 HD
ATOM     29  H   ARG O   2       0.290   7.106   3.147  0.00  0.00    +0.000 HD
ATOM     30  H   ARG O   2       1.527   4.413   0.495  0.00  0.00    +0.000 HD
ATOM     31  H   ARG O   2       2.556   4.846   1.784  0.00  0.00    +0.000 HD
ATOM     32  H   ARG O   2      -0.522   5.376   0.292  0.00  0.00    +0.000 HD
ATOM     33  H   ARG O   2      -1.041   6.536   1.430  0.00  0.00    +0.000 HD
ATOM     34  H   ASP O   3       2.994   2.745   6.579  0.00  0.00    +0.000 HD
TER 
REMARK  Name = /data/user_data/xianyang/t3-aimnet-affinity-balanced/L3/P05622/pocket.pdb
REMARK                            x       y       z     vdW  Elec       q    Type
REMARK                         _______ _______ _______ _____ _____    ______ ____
ATOM      1  N   ARG P   1       9.323   4.006   7.084  0.00  0.00    +0.000 N 
ATOM      2  CA  ARG P   1       9.956   2.998   6.243  0.00  0.00    +0.000 C 
ATOM      3  C   ARG P   1       9.840   3.319   4.761  0.00  0.00    +0.000 C 
ATOM      4  O   ARG P   1      10.431   2.613   3.943  0.00  0.00    +0.000 OA
ATOM      5  CB  ARG P   1       9.355   1.621   6.514  0.00  0.00    +0.000 C 
ATOM      6  CG  ARG P   1       9.879   0.951   7.772  0.00  0.00    +0.000 C 
ATOM      7  CD  ARG P   1       9.312  -0.444   7.912  0.00  0.00    +0.000 C 
ATOM      8  NE  ARG P   1       9.875  -1.152   9.065  0.00  0.00    +0.000 N 
ATOM      9  CZ  ARG P   1      10.903  -1.979   8.999  0.00  0.00    +0.000 C 
ATOM     10  NH1 ARG P   1      11.492  -2.217   7.840  0.00  0.00    +0.000 N 
ATOM     11  NH2 ARG P   1      11.339  -2.576  10.103  0.00  0.00    +0.000 N 
ATOM     12  N   ASP P   2       9.101   4.330   4.425  0.00  0.00    +0.000 N 
ATOM     13  CA  ASP P   2       8.950   4.737   3.036  0.00  0.00    +0.000 C 
ATOM     14  C   ASP P   2      10.071   5.707   2.680  0.00  0.00    +0.000 C 
ATOM     15  O   ASP P   2      10.152   6.800   3.236  0.00  0.00    +0.000 OA
ATOM     16  CB  ASP P   2       7.578   5.375   2.821  0.00  0.00    +0.000 C 
ATOM     17  CG  ASP P   2       7.244   5.570   1.352  0.00  0.00    +0.000 C 
ATOM     18  OD1 ASP P   2       8.167   5.593   0.516  0.00  0.00    +0.000 OA
ATOM     19  OD2 ASP P   2       6.041   5.706   1.039  0.00  0.00    +0.000 OA
ATOM     20  H   ARG P   1       9.736   4.918   6.890  0.00  0.00    +0.000 HD
ATOM     21  H   ARG P   1       9.467   3.769   8.066  0.00  0.00    +0.000 HD
ATOM     22  H   ARG P   1       8.323   4.036   6.885  0.00  0.00    +0.000 HD
ATOM     23  H   ARG P   1       9.460  -1.002   9.945  0.00  0.00    +0.000 HD
ATOM     24  H   ARG P   1      11.168  -1.774   7.023  0.00  0.00    +0.000 HD
ATOM     25  H   ARG P   1      12.255  -2.837   7.794  0.00  0.00    +0.000 HD
ATOM     26  H   ARG P   1      12.105  -3.193  10.059  0.00  0.00    +0.000 HD
ATOM     27  H   ARG P   1      10.896  -2.401  10.965  0.00  0.00    +0.000 HD
ATOM     28  H   ASP P   2       8.630   4.835   5.127  0.00  0.00    +0.000 HD
TER 
REMARK  Name = /data/user_data/xianyang/t3-aimnet-affinity-balanced/L3/P05622/pocket.pdb
REMARK                            x       y       z     vdW  Elec       q    Type
REMARK                         _______ _______ _______ _____ _____    ______ ____
ATOM      1  N   ASN Q   1      10.376   7.533   0.255  0.00  0.00    +0.000 N 
ATOM      2  CA  ASN Q   1       9.881   8.751  -0.365  0.00  0.00    +0.000 C 
ATOM      3  C   ASN Q   1       9.540   9.837   0.644  0.00  0.00    +0.000 C 
ATOM      4  O   ASN Q   1       9.193  10.951   0.248  0.00  0.00    +0.000 OA
ATOM      5  CB  ASN Q   1       8.656   8.445  -1.227  0.00  0.00    +0.000 C 
ATOM      6  CG  ASN Q   1       8.994   7.594  -2.433  0.00  0.00    +0.000 C 
ATOM      7  OD1 ASN Q   1      10.003   7.820  -3.097  0.00  0.00    +0.000 OA
ATOM      8  ND2 ASN Q   1       8.147   6.625  -2.729  0.00  0.00    +0.000 N 
ATOM      9  H   ASN Q   1      10.587   6.845  -0.468  0.00  0.00    +0.000 HD
ATOM     10  H   ASN Q   1       9.666   7.159   0.884  0.00  0.00    +0.000 HD
ATOM     11  H   ASN Q   1      11.223   7.741   0.784  0.00  0.00    +0.000 HD
ATOM     12  H   ASN Q   1       8.318   6.041  -3.503  0.00  0.00    +0.000 HD
ATOM     13  H   ASN Q   1       7.345   6.486  -2.176  0.00  0.00    +0.000 HD
TER 
