REMARK  Name = /data/user_data/xianyang/t3-aimnet-affinity-balanced/L2/P08254/pocket.pdb
REMARK                            x       y       z     vdW  Elec       q    Type
REMARK                         _______ _______ _______ _____ _____    ______ ____
ATOM      1  N   ASN A   1      17.857 -11.187 -17.651  0.00  0.00    +0.000 N 
ATOM      2  CA  ASN A   1      17.954 -10.000 -16.799  0.00  0.00    +0.000 C 
ATOM      3  C   ASN A   1      17.401 -10.277 -15.388  0.00  0.00    +0.000 C 
ATOM      4  O   ASN A   1      17.930 -11.140 -14.682  0.00  0.00    +0.000 OA
ATOM      5  CB  ASN A   1      17.278  -8.795 -17.474  0.00  0.00    +0.000 C 
ATOM      6  CG  ASN A   1      17.833  -8.510 -18.861  0.00  0.00    +0.000 C 
ATOM      7  OD1 ASN A   1      18.945  -7.998 -19.008  0.00  0.00    +0.000 OA
ATOM      8  ND2 ASN A   1      17.049  -8.834 -19.889  0.00  0.00    +0.000 N 
ATOM      9  N   VAL A   2      16.348  -9.568 -14.981  0.00  0.00    +0.000 N 
ATOM     10  CA  VAL A   2      15.724  -9.797 -13.681  0.00  0.00    +0.000 C 
ATOM     11  C   VAL A   2      14.949 -11.120 -13.695  0.00  0.00    +0.000 C 
ATOM     12  O   VAL A   2      13.996 -11.289 -14.461  0.00  0.00    +0.000 OA
ATOM     13  CB  VAL A   2      14.768  -8.643 -13.293  0.00  0.00    +0.000 C 
ATOM     14  CG2 VAL A   2      14.089  -8.926 -11.952  0.00  0.00    +0.000 C 
ATOM     15  CG1 VAL A   2      15.524  -7.318 -13.244  0.00  0.00    +0.000 C 
ATOM     16  N   LEU A   3      15.370 -12.048 -12.841  0.00  0.00    +0.000 N 
ATOM     17  CA  LEU A   3      14.721 -13.352 -12.715  0.00  0.00    +0.000 C 
ATOM     18  C   LEU A   3      13.569 -13.279 -11.707  0.00  0.00    +0.000 C 
ATOM     19  O   LEU A   3      12.515 -13.885 -11.914  0.00  0.00    +0.000 OA
ATOM     20  CB  LEU A   3      15.742 -14.407 -12.276  0.00  0.00    +0.000 C 
ATOM     21  CG  LEU A   3      17.041 -14.464 -13.093  0.00  0.00    +0.000 C 
ATOM     22  CD2 LEU A   3      18.000 -15.485 -12.511  0.00  0.00    +0.000 C 
ATOM     23  CD1 LEU A   3      16.751 -14.762 -14.559  0.00  0.00    +0.000 C 
ATOM     24  N   ALA A   4      13.790 -12.536 -10.622  0.00  0.00    +0.000 N 
ATOM     25  CA  ALA A   4      12.803 -12.370  -9.557  0.00  0.00    +0.000 C 
ATOM     26  C   ALA A   4      13.145 -11.171  -8.667  0.00  0.00    +0.000 C 
ATOM     27  O   ALA A   4      14.278 -10.682  -8.674  0.00  0.00    +0.000 OA
ATOM     28  CB  ALA A   4      12.721 -13.641  -8.713  0.00  0.00    +0.000 C 
ATOM     29  N   HIS A   5      12.155 -10.699  -7.910  0.00  0.00    +0.000 N 
ATOM     30  CA  HIS A   5      12.391  -9.717  -6.845  0.00  0.00    +0.000 C 
ATOM     31  C   HIS A   5      11.425  -9.920  -5.688  0.00  0.00    +0.000 C 
ATOM     32  O   HIS A   5      10.344 -10.495  -5.857  0.00  0.00    +0.000 OA
ATOM     33  CB  HIS A   5      12.307  -8.272  -7.361  0.00  0.00    +0.000 C 
ATOM     34  CG  HIS A   5      10.979  -7.902  -7.947  0.00  0.00    +0.000 C 
ATOM     35  ND1 HIS A   5      10.805  -7.662  -9.291  0.00  0.00    +0.000 NA
ATOM     36  CD2 HIS A   5       9.767  -7.715  -7.372  0.00  0.00    +0.000 C 
ATOM     37  CE1 HIS A   5       9.543  -7.349  -9.522  0.00  0.00    +0.000 C 
ATOM     38  NE2 HIS A   5       8.890  -7.378  -8.375  0.00  0.00    +0.000 NA
ATOM     39  N   ALA A   6      11.839  -9.451  -4.513  0.00  0.00    +0.000 N 
ATOM     40  CA  ALA A   6      11.036  -9.541  -3.295  0.00  0.00    +0.000 C 
ATOM     41  C   ALA A   6      11.171  -8.258  -2.482  0.00  0.00    +0.000 C 
ATOM     42  O   ALA A   6      12.061  -7.441  -2.733  0.00  0.00    +0.000 OA
ATOM     43  CB  ALA A   6      11.457 -10.744  -2.462  0.00  0.00    +0.000 C 
ATOM     44  H   ASN A   1      18.230 -10.973 -18.576  0.00  0.00    +0.000 HD
ATOM     45  H   ASN A   1      16.880 -11.466 -17.735  0.00  0.00    +0.000 HD
ATOM     46  H   ASN A   1      18.394 -11.948 -17.236  0.00  0.00    +0.000 HD
ATOM     47  H   ASN A   1      17.354  -8.673 -20.811  0.00  0.00    +0.000 HD
ATOM     48  H   ASN A   1      16.164  -9.234 -19.726  0.00  0.00    +0.000 HD
ATOM     49  H   VAL A   2      15.981  -8.872 -15.573  0.00  0.00    +0.000 HD
ATOM     50  H   LEU A   3      16.148 -11.850 -12.272  0.00  0.00    +0.000 HD
ATOM     51  H   ALA A   4      14.657 -12.079 -10.534  0.00  0.00    +0.000 HD
ATOM     52  H   HIS A   5      11.238 -11.019  -8.070  0.00  0.00    +0.000 HD
ATOM     53  H   ALA A   6      12.725  -9.025  -4.462  0.00  0.00    +0.000 HD
TER 
REMARK  Name = /data/user_data/xianyang/t3-aimnet-affinity-balanced/L2/P08254/pocket.pdb
REMARK                            x       y       z     vdW  Elec       q    Type
REMARK                         _______ _______ _______ _____ _____    ______ ____
ATOM      1  N   LEU B   1      17.041 -22.050  -5.647  0.00  0.00    +0.000 N 
ATOM      2  CA  LEU B   1      18.138 -21.109  -5.369  0.00  0.00    +0.000 C 
ATOM      3  C   LEU B   1      17.685 -19.648  -5.400  0.00  0.00    +0.000 C 
ATOM      4  O   LEU B   1      18.062 -18.863  -4.528  0.00  0.00    +0.000 OA
ATOM      5  CB  LEU B   1      19.292 -21.310  -6.362  0.00  0.00    +0.000 C 
ATOM      6  CG  LEU B   1      20.100 -22.606  -6.226  0.00  0.00    +0.000 C 
ATOM      7  CD1 LEU B   1      20.949 -22.844  -7.468  0.00  0.00    +0.000 C 
ATOM      8  CD2 LEU B   1      20.970 -22.579  -4.976  0.00  0.00    +0.000 C 
ATOM      9  N   VAL B   2      16.882 -19.293  -6.401  0.00  0.00    +0.000 N 
ATOM     10  CA  VAL B   2      16.366 -17.925  -6.539  0.00  0.00    +0.000 C 
ATOM     11  C   VAL B   2      15.382 -17.594  -5.411  0.00  0.00    +0.000 C 
ATOM     12  O   VAL B   2      15.454 -16.518  -4.821  0.00  0.00    +0.000 OA
ATOM     13  CB  VAL B   2      15.690 -17.699  -7.918  0.00  0.00    +0.000 C 
ATOM     14  CG2 VAL B   2      15.030 -16.326  -7.986  0.00  0.00    +0.000 C 
ATOM     15  CG1 VAL B   2      16.706 -17.848  -9.037  0.00  0.00    +0.000 C 
ATOM     16  N   ALA B   3      14.481 -18.530  -5.112  0.00  0.00    +0.000 N 
ATOM     17  CA  ALA B   3      13.538 -18.388  -3.996  0.00  0.00    +0.000 C 
ATOM     18  C   ALA B   3      14.252 -18.219  -2.643  0.00  0.00    +0.000 C 
ATOM     19  O   ALA B   3      13.846 -17.394  -1.827  0.00  0.00    +0.000 OA
ATOM     20  CB  ALA B   3      12.584 -19.586  -3.949  0.00  0.00    +0.000 C 
ATOM     21  H   LEU B   1      17.396 -23.006  -5.614  0.00  0.00    +0.000 HD
ATOM     22  H   LEU B   1      16.658 -21.861  -6.573  0.00  0.00    +0.000 HD
ATOM     23  H   LEU B   1      16.309 -21.935  -4.946  0.00  0.00    +0.000 HD
ATOM     24  H   VAL B   2      16.626 -19.969  -7.070  0.00  0.00    +0.000 HD
ATOM     25  H   ALA B   3      14.447 -19.347  -5.660  0.00  0.00    +0.000 HD
TER 
REMARK  Name = /data/user_data/xianyang/t3-aimnet-affinity-balanced/L2/P08254/pocket.pdb
REMARK                            x       y       z     vdW  Elec       q    Type
REMARK                         _______ _______ _______ _____ _____    ______ ____
ATOM      1  N   HIS C   1      17.184 -16.897  -2.192  0.00  0.00    +0.000 N 
ATOM      2  CA  HIS C   1      17.703 -15.526  -2.276  0.00  0.00    +0.000 C 
ATOM      3  C   HIS C   1      16.582 -14.493  -2.133  0.00  0.00    +0.000 C 
ATOM      4  O   HIS C   1      16.770 -13.449  -1.500  0.00  0.00    +0.000 OA
ATOM      5  CB  HIS C   1      18.441 -15.350  -3.613  0.00  0.00    +0.000 C 
ATOM      6  CG  HIS C   1      18.906 -13.952  -3.891  0.00  0.00    +0.000 A 
ATOM      7  ND1 HIS C   1      20.167 -13.507  -3.559  0.00  0.00    +0.000 N 
ATOM      8  CD2 HIS C   1      18.294 -12.918  -4.516  0.00  0.00    +0.000 A 
ATOM      9  CE1 HIS C   1      20.303 -12.251  -3.946  0.00  0.00    +0.000 A 
ATOM     10  NE2 HIS C   1      19.181 -11.868  -4.528  0.00  0.00    +0.000 NA
ATOM     11  N   GLU C   2      15.424 -14.793  -2.723  0.00  0.00    +0.000 N 
ATOM     12  CA  GLU C   2      14.248 -13.928  -2.625  0.00  0.00    +0.000 C 
ATOM     13  C   GLU C   2      13.656 -13.897  -1.223  0.00  0.00    +0.000 C 
ATOM     14  O   GLU C   2      13.226 -12.842  -0.756  0.00  0.00    +0.000 OA
ATOM     15  CB  GLU C   2      13.163 -14.362  -3.617  0.00  0.00    +0.000 C 
ATOM     16  CG  GLU C   2      13.497 -14.133  -5.090  0.00  0.00    +0.000 C 
ATOM     17  CD  GLU C   2      14.190 -12.806  -5.351  0.00  0.00    +0.000 C 
ATOM     18  OE2 GLU C   2      13.735 -11.771  -4.816  0.00  0.00    +0.000 OA
ATOM     19  OE1 GLU C   2      15.194 -12.805  -6.094  0.00  0.00    +0.000 OA
ATOM     20  H   HIS C   1      17.954 -17.559  -2.291  0.00  0.00    +0.000 HD
ATOM     21  H   HIS C   1      16.506 -17.050  -2.939  0.00  0.00    +0.000 HD
ATOM     22  H   HIS C   1      16.731 -17.034  -1.288  0.00  0.00    +0.000 HD
ATOM     23  H   HIS C   1      20.858 -14.041  -3.105  0.00  0.00    +0.000 HD
ATOM     24  H   GLU C   2      15.358 -15.626  -3.243  0.00  0.00    +0.000 HD
TER 
REMARK  Name = /data/user_data/xianyang/t3-aimnet-affinity-balanced/L2/P08254/pocket.pdb
REMARK                            x       y       z     vdW  Elec       q    Type
REMARK                         _______ _______ _______ _____ _____    ______ ____
ATOM      1  N   HIS D   1      15.375 -11.563   0.942  0.00  0.00    +0.000 N 
ATOM      2  CA  HIS D   1      14.822 -10.210   0.814  0.00  0.00    +0.000 C 
ATOM      3  C   HIS D   1      13.534 -10.041   1.623  0.00  0.00    +0.000 C 
ATOM      4  O   HIS D   1      13.297  -8.977   2.197  0.00  0.00    +0.000 OA
ATOM      5  CB  HIS D   1      14.550  -9.853  -0.654  0.00  0.00    +0.000 C 
ATOM      6  CG  HIS D   1      15.782  -9.761  -1.500  0.00  0.00    +0.000 A 
ATOM      7  ND1 HIS D   1      16.852  -8.953  -1.175  0.00  0.00    +0.000 N 
ATOM      8  CD2 HIS D   1      16.104 -10.358  -2.671  0.00  0.00    +0.000 A 
ATOM      9  CE1 HIS D   1      17.784  -9.066  -2.104  0.00  0.00    +0.000 A 
ATOM     10  NE2 HIS D   1      17.355  -9.910  -3.026  0.00  0.00    +0.000 NA
ATOM     11  H   HIS D   1      16.230 -11.635   0.390  0.00  0.00    +0.000 HD
ATOM     12  H   HIS D   1      14.694 -12.242   0.603  0.00  0.00    +0.000 HD
ATOM     13  H   HIS D   1      15.586 -11.753   1.922  0.00  0.00    +0.000 HD
ATOM     14  H   HIS D   1      16.912  -8.382  -0.376  0.00  0.00    +0.000 HD
TER 
REMARK  Name = /data/user_data/xianyang/t3-aimnet-affinity-balanced/L2/P08254/pocket.pdb
REMARK                            x       y       z     vdW  Elec       q    Type
REMARK                         _______ _______ _______ _____ _____    ______ ____
ATOM      1  N   HIS E   1      21.579  -7.132  -0.739  0.00  0.00    +0.000 N 
ATOM      2  CA  HIS E   1      22.646  -7.826  -1.454  0.00  0.00    +0.000 C 
ATOM      3  C   HIS E   1      24.008  -7.751  -0.760  0.00  0.00    +0.000 C 
ATOM      4  O   HIS E   1      24.383  -6.718  -0.204  0.00  0.00    +0.000 OA
ATOM      5  CB  HIS E   1      22.745  -7.309  -2.894  0.00  0.00    +0.000 C 
ATOM      6  CG  HIS E   1      21.553  -7.649  -3.736  0.00  0.00    +0.000 C 
ATOM      7  ND1 HIS E   1      21.000  -6.768  -4.642  0.00  0.00    +0.000 NA
ATOM      8  CD2 HIS E   1      20.804  -8.775  -3.804  0.00  0.00    +0.000 C 
ATOM      9  CE1 HIS E   1      19.968  -7.340  -5.236  0.00  0.00    +0.000 C 
ATOM     10  NE2 HIS E   1      19.825  -8.557  -4.742  0.00  0.00    +0.000 NA
ATOM     11  H   HIS E   1      20.706  -7.224  -1.258  0.00  0.00    +0.000 HD
ATOM     12  H   HIS E   1      21.817  -6.144  -0.648  0.00  0.00    +0.000 HD
ATOM     13  H   HIS E   1      21.468  -7.542   0.188  0.00  0.00    +0.000 HD
TER 
REMARK  Name = /data/user_data/xianyang/t3-aimnet-affinity-balanced/L2/P08254/pocket.pdb
REMARK                            x       y       z     vdW  Elec       q    Type
REMARK                         _______ _______ _______ _____ _____    ______ ____
ATOM      1  N   LEU F   1      24.900 -16.364  -0.604  0.00  0.00    +0.000 N 
ATOM      2  CA  LEU F   1      23.614 -16.571  -1.279  0.00  0.00    +0.000 C 
ATOM      3  C   LEU F   1      22.958 -15.245  -1.668  0.00  0.00    +0.000 C 
ATOM      4  O   LEU F   1      22.288 -15.161  -2.699  0.00  0.00    +0.000 OA
ATOM      5  CB  LEU F   1      22.655 -17.384  -0.393  0.00  0.00    +0.000 C 
ATOM      6  CG  LEU F   1      21.208 -17.567  -0.879  0.00  0.00    +0.000 C 
ATOM      7  CD1 LEU F   1      21.157 -18.138  -2.290  0.00  0.00    +0.000 C 
ATOM      8  CD2 LEU F   1      20.420 -18.453   0.078  0.00  0.00    +0.000 C 
ATOM      9  H   LEU F   1      25.518 -15.824  -1.209  0.00  0.00    +0.000 HD
ATOM     10  H   LEU F   1      25.327 -17.268  -0.401  0.00  0.00    +0.000 HD
ATOM     11  H   LEU F   1      24.749 -15.856   0.268  0.00  0.00    +0.000 HD
TER 
REMARK  Name = /data/user_data/xianyang/t3-aimnet-affinity-balanced/L2/P08254/pocket.pdb
REMARK                            x       y       z     vdW  Elec       q    Type
REMARK                         _______ _______ _______ _____ _____    ______ ____
ATOM      1  N   TYR G   1      24.401 -12.586  -2.707  0.00  0.00    +0.000 N 
ATOM      2  CA  TYR G   1      25.127 -11.879  -3.762  0.00  0.00    +0.000 C 
ATOM      3  C   TYR G   1      24.206 -11.726  -4.983  0.00  0.00    +0.000 C 
ATOM      4  O   TYR G   1      23.548 -12.688  -5.378  0.00  0.00    +0.000 OA
ATOM      5  CB  TYR G   1      26.401 -12.643  -4.134  0.00  0.00    +0.000 C 
ATOM      6  CG  TYR G   1      27.399 -11.818  -4.909  0.00  0.00    +0.000 A 
ATOM      7  CD2 TYR G   1      28.265 -10.945  -4.256  0.00  0.00    +0.000 A 
ATOM      8  CD1 TYR G   1      27.473 -11.902  -6.297  0.00  0.00    +0.000 A 
ATOM      9  CE2 TYR G   1      29.185 -10.180  -4.963  0.00  0.00    +0.000 A 
ATOM     10  CE1 TYR G   1      28.388 -11.140  -7.013  0.00  0.00    +0.000 A 
ATOM     11  CZ  TYR G   1      29.241 -10.282  -6.341  0.00  0.00    +0.000 A 
ATOM     12  OH  TYR G   1      30.148  -9.529  -7.049  0.00  0.00    +0.000 OA
ATOM     13  N   PRO G   2      24.163 -10.521  -5.592  0.00  0.00    +0.000 N 
ATOM     14  CA  PRO G   2      23.130 -10.189  -6.589  0.00  0.00    +0.000 C 
ATOM     15  C   PRO G   2      23.229 -10.876  -7.965  0.00  0.00    +0.000 C 
ATOM     16  O   PRO G   2      22.610 -10.399  -8.919  0.00  0.00    +0.000 OA
ATOM     17  CB  PRO G   2      23.294  -8.671  -6.754  0.00  0.00    +0.000 C 
ATOM     18  CG  PRO G   2      24.710  -8.415  -6.449  0.00  0.00    +0.000 C 
ATOM     19  CD  PRO G   2      25.085  -9.390  -5.375  0.00  0.00    +0.000 C 
ATOM     20  N   LEU G   3      23.972 -11.976  -8.073  0.00  0.00    +0.000 N 
ATOM     21  CA  LEU G   3      24.155 -12.654  -9.358  0.00  0.00    +0.000 C 
ATOM     22  C   LEU G   3      23.935 -14.163  -9.244  0.00  0.00    +0.000 C 
ATOM     23  O   LEU G   3      24.436 -14.807  -8.322  0.00  0.00    +0.000 OA
ATOM     24  CB  LEU G   3      25.550 -12.356  -9.912  0.00  0.00    +0.000 C 
ATOM     25  CG  LEU G   3      25.823 -10.874 -10.200  0.00  0.00    +0.000 C 
ATOM     26  CD2 LEU G   3      27.304 -10.628 -10.405  0.00  0.00    +0.000 C 
ATOM     27  CD1 LEU G   3      25.022 -10.394 -11.405  0.00  0.00    +0.000 C 
ATOM     28  N   TYR G   4      23.183 -14.712 -10.196  0.00  0.00    +0.000 N 
ATOM     29  CA  TYR G   4      22.823 -16.129 -10.202  0.00  0.00    +0.000 C 
ATOM     30  C   TYR G   4      23.978 -16.979 -10.729  0.00  0.00    +0.000 C 
ATOM     31  O   TYR G   4      24.408 -16.808 -11.871  0.00  0.00    +0.000 OA
ATOM     32  CB  TYR G   4      21.569 -16.347 -11.061  0.00  0.00    +0.000 C 
ATOM     33  CG  TYR G   4      21.143 -17.794 -11.203  0.00  0.00    +0.000 A 
ATOM     34  CD2 TYR G   4      20.341 -18.402 -10.242  0.00  0.00    +0.000 A 
ATOM     35  CD1 TYR G   4      21.536 -18.550 -12.304  0.00  0.00    +0.000 A 
ATOM     36  CE2 TYR G   4      19.946 -19.729 -10.370  0.00  0.00    +0.000 A 
ATOM     37  CE1 TYR G   4      21.147 -19.877 -12.441  0.00  0.00    +0.000 A 
ATOM     38  CZ  TYR G   4      20.353 -20.460 -11.471  0.00  0.00    +0.000 A 
ATOM     39  OH  TYR G   4      19.967 -21.774 -11.605  0.00  0.00    +0.000 OA
ATOM     40  N   HIS G   5      24.476 -17.888  -9.891  0.00  0.00    +0.000 N 
ATOM     41  CA  HIS G   5      25.516 -18.839 -10.294  0.00  0.00    +0.000 C 
ATOM     42  C   HIS G   5      25.311 -20.189  -9.613  0.00  0.00    +0.000 C 
ATOM     43  O   HIS G   5      24.291 -20.848  -9.816  0.00  0.00    +0.000 OA
ATOM     44  CB  HIS G   5      26.914 -18.291  -9.979  0.00  0.00    +0.000 C 
ATOM     45  CG  HIS G   5      27.117 -17.922  -8.541  0.00  0.00    +0.000 A 
ATOM     46  ND1 HIS G   5      27.431 -18.849  -7.570  0.00  0.00    +0.000 N 
ATOM     47  CD2 HIS G   5      27.064 -16.723  -7.913  0.00  0.00    +0.000 A 
ATOM     48  CE1 HIS G   5      27.555 -18.239  -6.405  0.00  0.00    +0.000 A 
ATOM     49  NE2 HIS G   5      27.338 -16.948  -6.585  0.00  0.00    +0.000 NA
ATOM     50  H   TYR G   1      23.556 -12.067  -2.469  0.00  0.00    +0.000 HD
ATOM     51  H   TYR G   1      24.994 -12.666  -1.881  0.00  0.00    +0.000 HD
ATOM     52  H   TYR G   1      24.147 -13.518  -3.035  0.00  0.00    +0.000 HD
ATOM     53  H   TYR G   1      30.186  -9.598  -7.983  0.00  0.00    +0.000 HD
ATOM     54  H   LEU G   3      24.408 -12.342  -7.270  0.00  0.00    +0.000 HD
ATOM     55  H   TYR G   4      22.856 -14.139 -10.927  0.00  0.00    +0.000 HD
ATOM     56  H   TYR G   4      20.243 -22.270 -12.351  0.00  0.00    +0.000 HD
ATOM     57  H   HIS G   5      24.133 -17.922  -8.969  0.00  0.00    +0.000 HD
ATOM     58  H   HIS G   5      27.545 -19.815  -7.721  0.00  0.00    +0.000 HD
TER 
